<?xml version="1.0"?>
<VTKFile type="UnstructuredGrid"  version="0.1"  >
<UnstructuredGrid>
<Piece  NumberOfPoints="16275" NumberOfCells="32468">
<Points>
<DataArray  type="Float64"  NumberOfComponents="3"  format="ascii">-0.5 0.5 0  0.5 0.5 0  0.5 -0.5 0  -0.5 -0.5 0  -1 1 0  1 1 0  1 -1 0  -1 -1 0  -0.4900000000000277 0.5 0  -0.4800000000000555 0.5 0  -0.4700000000000832 0.5 0  -0.4600000000001109 0.5 0  -0.4500000000001387 0.5 0  -0.4400000000001664 0.5 0  -0.4300000000001942 0.5 0  -0.4200000000002219 0.5 0  -0.4100000000002497 0.5 0  -0.4000000000002774 0.5 0  -0.3900000000003052 0.5 0  -0.3800000000003328 0.5 0  -0.3700000000003606 0.5 0  -0.3600000000003883 0.5 0  -0.3500000000004161 0.5 0  -0.3400000000004438 0.5 0  -0.3300000000004716 0.5 0  -0.3200000000004993 0.5 0  -0.3100000000005271 0.5 0  -0.3000000000005548 0.5 0  -0.2900000000005825 0.5 0  -0.2800000000006103 0.5 0  -0.2700000000006381 0.5 0  -0.2600000000006658 0.5 0  -0.2500000000006935 0.5 0  -0.2400000000007212 0.5 0  -0.230000000000749 0.5 0  -0.2200000000007767 0.5 0  -0.2100000000008044 0.5 0  -0.2000000000008322 0.5 0  -0.19000000000086 0.5 0  -0.1800000000008877 0.5 0  -0.1700000000009154 0.5 0  -0.1600000000009431 0.5 0  -0.1500000000009709 0.5 0  -0.1400000000009986 0.5 0  -0.1300000000010264 0.5 0  -0.1200000000010541 0.5 0  -0.1100000000010818 0.5 0  -0.1000000000011096 0.5 0  -0.09000000000113734 0.5 0  -0.08000000000116503 0.5 0  -0.07000000000119283 0.5 0  -0.06000000000122058 0.5 0  -0.05000000000124827 0.5 0  -0.04000000000127607 0.5 0  -0.03000000000130376 0.5 0  -0.02000000000133151 0.5 0  -0.01000000000135925 0.5 0  -1.376121439022882e-12 0.5 0  0.009999999998640763 0.5 0  0.01999999999866864 0.5 0  0.02999999999869629 0.5 0  0.03999999999872406 0.5 0  0.04999999999875182 0.5 0  0.05999999999877947 0.5 0  0.06999999999880724 0.5 0  0.079999999998835 0.5 0  0.08999999999886266 0.5 0  0.09999999999889042 0.5 0  0.1099999999989182 0.5 0  0.1199999999989459 0.5 0  0.1299999999989737 0.5 0  0.1399999999990014 0.5 0  0.1499999999990291 0.5 0  0.1599999999990568 0.5 0  0.1699999999990847 0.5 0  0.1799999999991124 0.5 0  0.1899999999991401 0.5 0  0.1999999999991678 0.5 0  0.2099999999991955 0.5 0  0.2199999999992234 0.5 0  0.2299999999992511 0.5 0  0.2399999999992788 0.5 0  0.2499999999993066 0.5 0  0.2599999999993342 0.5 0  0.269999999999362 0.5 0  0.2799999999993897 0.5 0  0.2899999999994175 0.5 0  0.2999999999994452 0.5 0  0.3099999999994729 0.5 0  0.3199999999995007 0.5 0  0.3299999999995284 0.5 0  0.3399999999995562 0.5 0  0.3499999999995839 0.5 0  0.3599999999996116 0.5 0  0.3699999999996393 0.5 0  0.379999999999667 0.5 0  0.3899999999996949 0.5 0  0.3999999999997226 0.5 0  0.4099999999997503 0.5 0  0.419999999999778 0.5 0  0.4299999999998058 0.5 0  0.4399999999998336 0.5 0  0.4499999999998613 0.5 0  0.4599999999998891 0.5 0  0.4699999999999167 0.5 0  0.4799999999999445 0.5 0  0.4899999999999722 0.5 0  0.5 0.4900000000000277 0  0.5 0.4800000000000555 0  0.5 0.4700000000000832 0  0.5 0.4600000000001109 0  0.5 0.4500000000001387 0  0.5 0.4400000000001664 0  0.5 0.4300000000001942 0  0.5 0.4200000000002219 0  0.5 0.4100000000002497 0  0.5 0.4000000000002774 0  0.5 0.3900000000003052 0  0.5 0.3800000000003328 0  0.5 0.3700000000003606 0  0.5 0.3600000000003883 0  0.5 0.3500000000004161 0  0.5 0.3400000000004438 0  0.5 0.3300000000004716 0  0.5 0.3200000000004993 0  0.5 0.3100000000005271 0  0.5 0.3000000000005548 0  0.5 0.2900000000005825 0  0.5 0.2800000000006103 0  0.5 0.2700000000006381 0  0.5 0.2600000000006658 0  0.5 0.2500000000006935 0  0.5 0.2400000000007212 0  0.5 0.230000000000749 0  0.5 0.2200000000007767 0  0.5 0.2100000000008044 0  0.5 0.2000000000008322 0  0.5 0.19000000000086 0  0.5 0.1800000000008877 0  0.5 0.1700000000009154 0  0.5 0.1600000000009431 0  0.5 0.1500000000009709 0  0.5 0.1400000000009986 0  0.5 0.1300000000010264 0  0.5 0.1200000000010541 0  0.5 0.1100000000010818 0  0.5 0.1000000000011096 0  0.5 0.09000000000113734 0  0.5 0.08000000000116503 0  0.5 0.07000000000119283 0  0.5 0.06000000000122058 0  0.5 0.05000000000124827 0  0.5 0.04000000000127607 0  0.5 0.03000000000130376 0  0.5 0.02000000000133151 0  0.5 0.01000000000135925 0  0.5 1.376121439022882e-12 0  0.5 -0.009999999998640763 0  0.5 -0.01999999999866864 0  0.5 -0.02999999999869629 0  0.5 -0.03999999999872406 0  0.5 -0.04999999999875182 0  0.5 -0.05999999999877947 0  0.5 -0.06999999999880724 0  0.5 -0.079999999998835 0  0.5 -0.08999999999886266 0  0.5 -0.09999999999889042 0  0.5 -0.1099999999989182 0  0.5 -0.1199999999989459 0  0.5 -0.1299999999989737 0  0.5 -0.1399999999990014 0  0.5 -0.1499999999990291 0  0.5 -0.1599999999990568 0  0.5 -0.1699999999990847 0  0.5 -0.1799999999991124 0  0.5 -0.1899999999991401 0  0.5 -0.1999999999991678 0  0.5 -0.2099999999991955 0  0.5 -0.2199999999992234 0  0.5 -0.2299999999992511 0  0.5 -0.2399999999992788 0  0.5 -0.2499999999993066 0  0.5 -0.2599999999993342 0  0.5 -0.269999999999362 0  0.5 -0.2799999999993897 0  0.5 -0.2899999999994175 0  0.5 -0.2999999999994452 0  0.5 -0.3099999999994729 0  0.5 -0.3199999999995007 0  0.5 -0.3299999999995284 0  0.5 -0.3399999999995562 0  0.5 -0.3499999999995839 0  0.5 -0.3599999999996116 0  0.5 -0.3699999999996393 0  0.5 -0.379999999999667 0  0.5 -0.3899999999996949 0  0.5 -0.3999999999997226 0  0.5 -0.4099999999997503 0  0.5 -0.419999999999778 0  0.5 -0.4299999999998058 0  0.5 -0.4399999999998336 0  0.5 -0.4499999999998613 0  0.5 -0.4599999999998891 0  0.5 -0.4699999999999167 0  0.5 -0.4799999999999445 0  0.5 -0.4899999999999722 0  0.4900000000000277 -0.5 0  0.4800000000000555 -0.5 0  0.4700000000000832 -0.5 0  0.4600000000001109 -0.5 0  0.4500000000001387 -0.5 0  0.4400000000001664 -0.5 0  0.4300000000001942 -0.5 0  0.4200000000002219 -0.5 0  0.4100000000002497 -0.5 0  0.4000000000002774 -0.5 0  0.3900000000003052 -0.5 0  0.3800000000003328 -0.5 0  0.3700000000003606 -0.5 0  0.3600000000003883 -0.5 0  0.3500000000004161 -0.5 0  0.3400000000004438 -0.5 0  0.3300000000004716 -0.5 0  0.3200000000004993 -0.5 0  0.3100000000005271 -0.5 0  0.3000000000005548 -0.5 0  0.2900000000005825 -0.5 0  0.2800000000006103 -0.5 0  0.2700000000006381 -0.5 0  0.2600000000006658 -0.5 0  0.2500000000006935 -0.5 0  0.2400000000007212 -0.5 0  0.230000000000749 -0.5 0  0.2200000000007767 -0.5 0  0.2100000000008044 -0.5 0  0.2000000000008322 -0.5 0  0.19000000000086 -0.5 0  0.1800000000008877 -0.5 0  0.1700000000009154 -0.5 0  0.1600000000009431 -0.5 0  0.1500000000009709 -0.5 0  0.1400000000009986 -0.5 0  0.1300000000010264 -0.5 0  0.1200000000010541 -0.5 0  0.1100000000010818 -0.5 0  0.1000000000011096 -0.5 0  0.09000000000113734 -0.5 0  0.08000000000116503 -0.5 0  0.07000000000119283 -0.5 0  0.06000000000122058 -0.5 0  0.05000000000124827 -0.5 0  0.04000000000127607 -0.5 0  0.03000000000130376 -0.5 0  0.02000000000133151 -0.5 0  0.01000000000135925 -0.5 0  1.376121439022882e-12 -0.5 0  -0.009999999998640763 -0.5 0  -0.01999999999866864 -0.5 0  -0.02999999999869629 -0.5 0  -0.03999999999872406 -0.5 0  -0.04999999999875182 -0.5 0  -0.05999999999877947 -0.5 0  -0.06999999999880724 -0.5 0  -0.079999999998835 -0.5 0  -0.08999999999886266 -0.5 0  -0.09999999999889042 -0.5 0  -0.1099999999989182 -0.5 0  -0.1199999999989459 -0.5 0  -0.1299999999989737 -0.5 0  -0.1399999999990014 -0.5 0  -0.1499999999990291 -0.5 0  -0.1599999999990568 -0.5 0  -0.1699999999990847 -0.5 0  -0.1799999999991124 -0.5 0  -0.1899999999991401 -0.5 0  -0.1999999999991678 -0.5 0  -0.2099999999991955 -0.5 0  -0.2199999999992234 -0.5 0  -0.2299999999992511 -0.5 0  -0.2399999999992788 -0.5 0  -0.2499999999993066 -0.5 0  -0.2599999999993342 -0.5 0  -0.269999999999362 -0.5 0  -0.2799999999993897 -0.5 0  -0.2899999999994175 -0.5 0  -0.2999999999994452 -0.5 0  -0.3099999999994729 -0.5 0  -0.3199999999995007 -0.5 0  -0.3299999999995284 -0.5 0  -0.3399999999995562 -0.5 0  -0.3499999999995839 -0.5 0  -0.3599999999996116 -0.5 0  -0.3699999999996393 -0.5 0  -0.379999999999667 -0.5 0  -0.3899999999996949 -0.5 0  -0.3999999999997226 -0.5 0  -0.4099999999997503 -0.5 0  -0.419999999999778 -0.5 0  -0.4299999999998058 -0.5 0  -0.4399999999998336 -0.5 0  -0.4499999999998613 -0.5 0  -0.4599999999998891 -0.5 0  -0.4699999999999167 -0.5 0  -0.4799999999999445 -0.5 0  -0.4899999999999722 -0.5 0  -0.5 -0.4900000000000277 0  -0.5 -0.4800000000000555 0  -0.5 -0.4700000000000832 0  -0.5 -0.4600000000001109 0  -0.5 -0.4500000000001387 0  -0.5 -0.4400000000001664 0  -0.5 -0.4300000000001942 0  -0.5 -0.4200000000002219 0  -0.5 -0.4100000000002497 0  -0.5 -0.4000000000002774 0  -0.5 -0.3900000000003052 0  -0.5 -0.3800000000003328 0  -0.5 -0.3700000000003606 0  -0.5 -0.3600000000003883 0  -0.5 -0.3500000000004161 0  -0.5 -0.3400000000004438 0  -0.5 -0.3300000000004716 0  -0.5 -0.3200000000004993 0  -0.5 -0.3100000000005271 0  -0.5 -0.3000000000005548 0  -0.5 -0.2900000000005825 0  -0.5 -0.2800000000006103 0  -0.5 -0.2700000000006381 0  -0.5 -0.2600000000006658 0  -0.5 -0.2500000000006935 0  -0.5 -0.2400000000007212 0  -0.5 -0.230000000000749 0  -0.5 -0.2200000000007767 0  -0.5 -0.2100000000008044 0  -0.5 -0.2000000000008322 0  -0.5 -0.19000000000086 0  -0.5 -0.1800000000008877 0  -0.5 -0.1700000000009154 0  -0.5 -0.1600000000009431 0  -0.5 -0.1500000000009709 0  -0.5 -0.1400000000009986 0  -0.5 -0.1300000000010264 0  -0.5 -0.1200000000010541 0  -0.5 -0.1100000000010818 0  -0.5 -0.1000000000011096 0  -0.5 -0.09000000000113734 0  -0.5 -0.08000000000116503 0  -0.5 -0.07000000000119283 0  -0.5 -0.06000000000122058 0  -0.5 -0.05000000000124827 0  -0.5 -0.04000000000127607 0  -0.5 -0.03000000000130376 0  -0.5 -0.02000000000133151 0  -0.5 -0.01000000000135925 0  -0.5 -1.376121439022882e-12 0  -0.5 0.009999999998640763 0  -0.5 0.01999999999866864 0  -0.5 0.02999999999869629 0  -0.5 0.03999999999872406 0  -0.5 0.04999999999875182 0  -0.5 0.05999999999877947 0  -0.5 0.06999999999880724 0  -0.5 0.079999999998835 0  -0.5 0.08999999999886266 0  -0.5 0.09999999999889042
[...]
<PointData  Vectors="f_58-0"> 
<DataArray  type="Float64"  Name="f_58-0"  NumberOfComponents="3" format="ascii">8.3860425955152307e-02 9.1800262257960702e-02 0.0000000000000000e+00  -1.2388391904584850e-03 -1.2725832016858971e-01 0.0000000000000000e+00  1.6207643736172690e-02 -4.6388735352804267e-03 0.0000000000000000e+00  -2.4297757544805985e-02 -2.4798084582376606e-01 0.0000000000000000e+00  6.8227302423112656e-03 0.0000000000000000e+00 0.0000000000000000e+00  -7.8163557825500080e-02 0.0000000000000000e+00 0.0000000000000000e+00  -2.5159516928663830e-02 0.0000000000000000e+00 0.0000000000000000e+00  -2.2449989554610122e-02 0.0000000000000000e+00 0.0000000000000000e+00  9.0915963510321135e-02 -1.2168120701953817e-02 0.0000000000000000e+00  8.3478710878848228e-02 8.2120389499221166e-02 0.0000000000000000e+00  -1.4559998251214510e-02 1.1206266779807466e-03 0.0000000000000000e+00  7.1917055587085513e-02 7.3430288206098468e-02 0.0000000000000000e+00  6.5400526105133167e-02 -1.4127514336999249e-02 0.0000000000000000e+00  1.0372841156358778e-01 -1.4766075958878997e-02 0.0000000000000000e+00  1.1967660637464514e-01 5.2204140085364968e-02 0.0000000000000000e+00  4.0956316932722663e-02 4.3300875559816009e-02 0.0000000000000000e+00  9.3250460354562567e-02 7.7094651832678010e-02 0.0000000000000000e+00  6.0115415428864429e-02 -1.2124929077380928e-02 0.0000000000000000e+00  4.3444288203952824e-02 5.0477330633632633e-02 0.0000000000000000e+00  3.2774035972831621e-02 4.9500855930166100e-02 0.0000000000000000e+00  4.7460165906093463e-02 2.9226879951291366e-02 0.0000000000000000e+00  4.2769851232945043e-02 3.9358438210872919e-02 0.0000000000000000e+00  8.6263222240224438e-02 4.3732086418340407e-02 0.0000000000000000e+00  4.2316328281433502e-02 3.5757664704542759e-02 0.0000000000000000e+00  3.7486630367913498e-02 1.5656328008829871e-02 0.0000000000000000e+00  1.1499952839025747e-02 1.4511944576361612e-02 0.0000000000000000e+00  3.2705691885423015e-02 3.4130703171254849e-02 0.0000000000000000e+00  2.8328432213007931e-02 5.6066318846566422e-03 0.0000000000000000e+00  2.9936460404549944e-02 -7.7653671718730310e-03 0.0000000000000000e+00  8.3323529419710250e-03 1.5000303703309634e-02 0.0000000000000000e+00  9.8060123574363906e-03 8.9240142202965216e-03 0.0000000000000000e+00  -1.7860970597680475e-02 6.0299787651354180e-05 0.0000000000000000e+00  6.4235377930492018e-03 -4.4868866577329310e-02 0.0000000000000000e+00  5.5723191489602877e-03 6.0081079137009824e-03 0.0000000000000000e+00  2.0280388073168226e-03 -1.8557128909944962e-02 0.0000000000000000e+00  1.2063094817676967e-03 5.5873429810713215e-04 0.0000000000000000e+00  3.3289725709743341e-03 8.5296022913916043e-03 0.0000000000000000e+00  7.7252271602959383e-03 -1.2712501308729048e-03 0.0000000000000000e+00  -1.8705864015720453e-01 4.1974127316499717e-03 0.0000000000000000e+00  -1.4947740670054020e-02 -2.8275866256213646e-03 0.0000000000000000e+00  -2.7499389425776066e-03 7.0135179892104969e-03 0.0000000000000000e+00  -6.9532224840493789e-03 -1.9970901885280629e-01 0.0000000000000000e+00  -6.1865377976048205e-03 6.6383331012758806e-04 0.0000000000000000e+00  3.6032392639855117e-03 2.7976802077339259e-03 0.0000000000000000e+00  3.5084341996326493e-03 -1.7904679104569529e-01 0.0000000000000000e+00  -1.4674758504011899e-02 -4.5966478084248693e-03 0.0000000000000000e+00  -3.8720470824843084e-03 -5.2110096505288408e-03 0.0000000000000000e+00  1.7702809769566950e-03 -1.8086443272517411e-01 0.0000000000000000e+00  -5.8050856025000323e-03 -6.4119036251555316e-03 0.0000000000000000e+00  1.0122170740569984e-02 7.9822622937814856e-03 0.0000000000000000e+00  -1.0789065572127920e-02 7.2998071967265614e-03 0.0000000000000000e+00  9.2570885999474078e-03 -7.2876790295675273e-03 0.0000000000000000e+00  -6.6442567614992463e-04 -1.9408880036626967e-03 0.0000000000000000e+00  9.7298211295026842e-03 1.0212571824332954e-02 0.0000000000000000e+00  -4.8944803717847388e-02 -1.0248293416023520e-02 0.0000000000000000e+00  -5.4685486127784198e-02 9.3970532038189312e-03 0.0000000000000000e+00  -1.0710018889021636e-02 9.2670815207534160e-03 0.0000000000000000e+00  5.3899574707489484e-03 6.4073557839175220e-03 0.0000000000000000e+00  6.8533382116229384e-03 -1.1914997733886244e-02 0.0000000000000000e+00  5.6289445737288200e-03 7.7854159274306309e-03 0.0000000000000000e+00  -2.7580888197637494e-02 -2.1845611215270559e-02 0.0000000000000000e+00  -1.0928791710460508e-02 -1.8255185670787256e-02 0.0000000000000000e+00  -1.7542055882970243e-02 -2.3936627654136622e-02 0.0000000000000000e+00  -1.1025008469576183e-02 -2.4502252049542584e-02 0.0000000000000000e+00  -2.8510012432697551e-01 -1.4704205614203592e-02 0.0000000000000000e+00  -8.2915038507600826e-03 -1.4352979823133053e-02 0.0000000000000000e+00  -5.9696591426724125e-03 -1.1824746494708575e-02 0.0000000000000000e+00  -8.7287116171137595e-03 -2.2723711516473805e-01 0.0000000000000000e+00  -9.1324837102328749e-02 3.3619426176039204e-03 0.0000000000000000e+00  4.3327927628799790e-03 3.9105038327694056e-03 0.0000000000000000e+00  5.1446535155354970e-03 4.7847844543431918e-03 0.0000000000000000e+00  4.5786955443567210e-03 -7.3883325778695885e-02 0.0000000000000000e+00  -1.1768015765404836e-02 -1.2613126753192858e-02 0.0000000000000000e+00  -1.1199541669744817e-02 -1.3295334190877783e-02 0.0000000000000000e+00  -1.0658115259576564e-02 -1.9494008719069977e-02 0.0000000000000000e+00  3.1887951539671146e-03 -6.2221523851293335e-02 0.0000000000000000e+00  -4.1728751169555255e-03 -3.2764273905895478e-03 0.0000000000000000e+00  -3.3265319364182547e-02 -1.5058930610668387e-02 0.0000000000000000e+00  -1.6004566527220546e-02 -1.3033125706197992e-02 0.0000000000000000e+00  -1.0484510499629332e-02 -1.9577537287300047e-02 0.0000000000000000e+00  -9.6368777212781209e-03 -1.6918834016236253e-02 0.0000000000000000e+00  -2.3848625728477202e-01 -1.2242589769014432e-02 0.0000000000000000e+00  -2.2180359236221119e-02 -2.3639367022309048e-02 0.0000000000000000e+00  2.7976786082385199e-03 3.0951594043226046e-03 0.0000000000000000e+00  2.8731265640180386e-03 6.0118087126160734e-03 0.0000000000000000e+00  2.6493166835030763e-03 2.6187994991200476e-03 0.0000000000000000e+00  -1.0593878572893506e-02 -1.0989700436933654e-02 0.0000000000000000e+00  -1.8422305259760984e-03 -1.0886391321528383e-02 0.0000000000000000e+00  -1.8973643336730334e-01 -1.2817523122703435e-02 0.0000000000000000e+00  -2.7163753402428318e-03 -1.2383402767080233e-02 0.0000000000000000e+00  -1.1952338125814163e-02 -1.2799446577069154e-02 0.0000000000000000e+00  -1.9965655787290612e-01 -1.3230076581738586e-02 0.0000000000000000e+00  -5.1267314603256099e-03 -2.0437000475946299e-01 0.0000000000000000e+00  2.1342219468256794e-03 1.9108609062732816e-03 0.0000000000000000e+00  2.2734381304098730e-03 2.3167506108409904e-03 0.0000000000000000e+00  -1.3299513021210895e-02 -2.7131830222048479e-03 0.0000000000000000e+00  -1.3132714662073663e-02 -1.4993072050464726e-01 0.0000000000000000e+00  -1.2706853946192968e-02 -2.5209737531631748e-03 0.0000000000000000e+00  -2.1014085549943299e-03 -1.8595342468015291e-01 0.0000000000000000e+00  -2.4715036860292220e-03 -6.6966616700610757e-03 0.0000000000000000e+00  -8.6826513252923065e-03 8.0482877532642508e-04 0.0000000000000000e+00  9.3421451721960433e-04 -8.6499797781455189e-03 0.0000000000000000e+00  -4.1712611614836761e-03 -5.3213023026586932e-03 0.0000000000000000e+00  2.1615889768133905e-03 -4.6332290704589130e-03 0.0000000000000000e+00  -1.8438310784583082e-02 -5.5250208358716317e-03 0.0000000000000000e+00  -4.6093344560195733e-03 1.1055440180224823e-03 0.0000000000000000e+00  -1.3419686656560195e-01 -1.1894345420402061e-02 0.0000000000000000e+00  1.0105905021971534e-03 -4.8635511158944518e-03 0.0000000000000000e+00  9.0228758743070622e-03 -7.2707234969655074e-04 0.0000000000000000e+00  1.5678808711146396e-03 1.6320781065394765e-02 0.0000000000000000e+00  2.3492449412004127e-02 4.1372654140941940e-03 0.0000000000000000e+00  2.3776184710824322e-02 4.2412282457212685e-03 0.0000000000000000e+00  2.6721853934344862e-02 2.6547958912024484e-02 0.0000000000000000e+00  9.9833737248786647e-04 2.6736982598425517e-02 0.0000000000000000e+00  -4.9976485125012036e-02 2.9219131352546175e-02 0.0000000000000000e+00  -1.4659745614154610e-01 7.0675979140143397e-02 0.0000000000000000e+00  7.3618840619854339e-02 3.1057711447320629e-03 0.0000000000000000e+00  -1.5301376715196804e-01 -1.3982411094707581e-01 0.0000000000000000e+00  -1.2293260035060317e-01 6.4727371515441751e-02 0.0000000000000000e+00  6.3006387535846239e-02 -1.1875770173303392e-01 0.0000000000000000e+00  3.4030812596970536e-02 -9.0894119826203951e-03 0.0000000000000000e+00  -9.7579346291812918e-02 -9.4928459427821396e-02 0.0000000000000000e+00  4.4009251705750485e-02 5.7495132172200564e-02 0.0000000000000000e+00  4.0853198266696415e-02 -1.0142864906871667e-01 0.0000000000000000e+00  3.9000960985436046e-02 -9.8139134695909888e-02 0.0000000000000000e+00  5.4564600014637199e-02 5.2713931489322317e-02 0.0000000000000000e+00  1.9122886692632332e-02 -2.9417390793721590e-02 0.0000000000000000e+00  9.6256588378223866e-03 1.8218373221178354e-04 0.0000000000000000e+00  1.9513413933140055e-02 2.2878974215213760e-02 0.0000000000000000e+00  1.9946244355558130e-02 -4.6776221732751214e-02 0.0000000000000000e+00  2.0525813228385783e-02 1.9796771459567087e-02 0.0000000000000000e+00  2.0087292335882426e-02 2.0198768795399599e-02 0.0000000000000000e+00  2.3546683544166423e-02 1.5504351338893701e-02 0.0000000000000000e+00  2.3376835039634006e-02 2.2671784716859034e-02 0.0000000000000000e+00  -1.9854663530739381e-02 -2.1502211498422005e-02 0.0000000000000000e+00  -1.6694226784706834e-01 -1.1598741540035156e-02 0.0000000000000000e+00  1.7137267102020449e-02 1.7773997917835890e-02 0.0000000000000000e+00  1.4624245440909236e-05 2.2900567397564121e-02 0.0000000000000000e+00  2.2446701870324021e-02 1.6991948710400842e-02 0.0000000000000000e+00  1.7052555650989165e-04 2.2304822807703448e-02 0.0000000000000000e+00  1.1509672779916880e-02 -7.9036458369909759e-02 0.0000000000000000e+00  -1.2871759312719427e-01 8.1573688298804039e-03 0.0000000000000000e+00  -3.5269280832643503e-02 2.1740696724727112e-02 0.0000000000000000e+00  -8.4948800469376222e-05 2.2055605254149811e-02 0.0000000000000000e+00  -7.3887913569754562e-02 3.2753096113621774e-02 0.0000000000000000e+00  -7.2326111796559595e-02 2.7924894225110096e-02 0.0000000000000000e+00  -1.2381760275693448e-02 -7.4636839229896973e-02 0.0000000000000000e+00  3.2548674028164470e-02 -7.4055142310795574e-02 0.0000000000000000e+00  -5.0850188695424021e-02 -4.0289259691097375e-02 0.0000000000000000e+00  -5.1391082493140741e-02 -4.0531150422902618e-02 0.0000000000000000e+00  -4.0723206846473264e-02 -2.0630426515702499e-01 0.0000000000000000e+00  -5.2708631955880693e-02 -5.2869028133875555e-02 0.0000000000000000e+00  1.2843403465452267e-02 2.5099688337076431e-02 0.0000000000000000e+00  2.4951997979238728e-02 1.4263438348734185e-02 0.0000000000000000e+00  2.5065909653365435e-02 1.4122858682252886e-02 0.0000000000000000e+00  2.4919908381715723e-02 -5.8226371452901292e-02 0.0000000000000000e+00  2.4069157906457712e-02 -5.0835692160098284e-02 0.0000000000000000e+00  1.8181683906680797e-02 1.7979537714430279e-02 0.0000000000000000e+00  1.7799432115441691e-02 2.3805980661734481e-02 0.0000000000000000e+00  2.3429144911017968e-02 -4.9186051280583877e-02 0.0000000000000000e+00  -8.3644391177453670e-04 1.9957828871246298e-02 0.0000000000000000e+00  -4.1278893210112542e-02 2.0124343850701790e-02 0.0000000000000000e+00  -6.2893726048977687e-04 2.0168116479312329e-02 0.0000000000000000e+00  1.9746617546310127e-02 2.0280544218754755e-02 0.0000000000000000e+00  2.0228221159531164e-02 2.0776003583437962e-02 0.0000000000000000e+00  7.3159512095082053e-03 2.3645654678790259e-02 0.0000000000000000e+00  2.4008474623586185e-02 2.4183123879559339e-02 0.0000000000000000e+00  2.3207172021413914e-02 2.3055654359585377e-02 0.0000000000000000e+00  -4.3248927851320874e-02 -3.5724267355175379e-02 0.0000000000000000e+00  -3.5446557431057540e-02 -4.5530301077719632e-02 0.0000000000000000e+00  -1.9627283436066364e-01 -4.4974810118686703e-02 0.0000000000000000e+00  1.7335304906616927e-02 -1.0754602822806826e-01 0.0000000000000000e+00  -8.9558541544127509e-04 1.5260857907298510e-02 0.0000000000000000e+00  -6.5183200775938979e-04 1.5531526737306527e-02 0.0000000000000000e+00  -3.7299269346782390e-02 -3.4999777016828763e-02 0.0000000000000000e+00  1.7603436566304548e-02 1.7664462756468491e-02 0.0000000000000000e+00  -4.5745040884686609e-02 -1.5737723981866982e-03 0.0000000000000000e+00  1.7380150383770408e-02 1.7895824904648982e-02 0.0000000000000000e+00  -5.8555007125826218e-03 -5.4758716220560236e-02 0.0000000000000000e+00  -5.3242002254365935e-02 -3.4115715529213518e-02 0.0000000000000000e+00  -5.2292206723724276e-02 -3.4009719329736988e-02 0.0000000000000000e+00  1.9851998457060205e-02 2.0224933711886586e-03 0.0000000000000000e+00  -6.3039111871383419e-03 3.1013954190893067e-04 0.0000000000000000e+00  2.2671553105087665e-02 6.6158031465873464e-03 0.0000000000000000e+00  2.3167188772205295e-02 -8.4651393547636219e-02 0.0000000000000000e+00  -1.8860365085568087e-01 -3.2800629312227721e-02 0.0000000000000000e+00  -6.7818143215627163e-03 -3.2095027544742243e-02 0.0000000000000000e+00  -3.6318195658166588e-02 -2.9191852702192565e-02 0.0000000000000000e+00  -1.6076747616540116e-02 -8.0031347679923662e-03 0.0000000000000000e+00  -7.3744204390486772e-03 -1.7096432787386883e-02 0.0000000000000000e+00  -9.7083333629653205e-03 -1.0227250011832875e-02 0.0000000000000000e+00  4.6300167893581555e-04 -2.3281032111846118e-04 0.0000000000000000e+00  7.8760004790700026e-04 -9.3194587285666750e-03 0.0000000000000000e+00  -8.9533387649494232e-03 -8.5382366763379000e-03 0.0000000000000000e+00  1.0684013043089141e-02 1.0675094963686200e-02 0.0000000000000000e+00  1.0947836898383205e-02 1.3158313225814023e-02 0.0000000000000000e+00  1.0389318549817419e-02 -6.2909907489542751e-03 0.0000000000000000e+00  -8.1550849020782246e-03 1.1284256449927104e-02 0.0000000000000000e+00  1.1106962889121256e-02 1.0877983251253482e-02 0.0000000000000000e+00  -2.1731987570817249e-03 1.3264622557083234e-02 0.0000000000000000e+00  -1.5603845235433122e-03 -1.6299261402759782e-03 0.0000000000000000e+00  -5.6427297935396697e-03 -1.1446049679254305e-01 0.0000000000000000e+00  -4.3688616653335947e-04 -5.5363100424088117e-03 0.0000000000000000e+00  -5.6069155254374209e-04 1.5291194730259318e-02 0.0000000000000000e+00  1.5712157930882580e-02 1.5050240751727799e-02 0.0000000000000000e+00  1.4249036333836243e-03 1.0436716325363641e-03 0.0000000000000000e+00  8.4781111735918735e-03 -2.4620994023631928e-03 0.0000000000000000e+00  -1.9314275933031307e-03 1.2820500952983134e-02 0.0000000000000000e+00  -1.8680381348750031e-03 1.2742689847001965e-02 0.0000000000000000e+00  1.1861324411240284e-02 -7.4063147687009024e-04 0.0000000000000000e+00  -2.3839254959834803e-03 1.4368150077903982e-02 0.0000000000000000e+00  -3.3331491690380390e-02 -5.0491400740197957e-02 0.0000000000000000e+00  -3.1426569295223875e-02 -3.1135905232738958e-02 0.0000000000000000e+00  -4.9424650753021028e-02 1.2178122081825702e-02 0.0000000000000000e+00  -3.2360036934268560e-02 -2.7827924180361435e-02 0.0000000000000000e+00  -5.1274720169948058e-02 -2.8904095382525499e-02 0.0000000000000000e+00  2.4355368414497675e-02 9.8990652018869484e-03 0.0000000000000000e+00  2.4796655088943617e-02 2.4974691998841191e-02 0.0000000000000000e+00  2.4704877126203579e-02 1.0546986649590829e-02 0.0000000000000000e+00  -7.3251452110299917e-02 -7.0796046231122928e-02 0.0000000000000000e+00  2.4926203926195319e-02 2.4810526740225974e-02 0.0000000000000000e+00  -2.5724700923067329e-03 1.6111975855113547e-02 0.0000000000000000e+00  1.3938255002103021e-02 2.4780488079390411e-02 0.0000000000000000e+00  -3.1473735528069103e-04 1.3545354229403093e-02 0.0000000000000000e+00  1.4168104143401427e-02 1.4709785825963452e-02 0.0000000000000000e+00  2.4465365156824369e-02 -2.2172080447313909e-03 0.0000000000000000e+00  2.4282904079772034e-02 1.4826219956416207e-02 0.0000000000000000e+00  1.3577590411069625e-02 1.6697688661769346e-02 0.0000000000000000e+00  -1.4919762283670535e-01 -8.7856845459342078e-03 0.0000000000000000e+00  -6.0407555477970096e-02 -1.3074338730741432e-02 0.0000000000000000e+00  -6.1266571648048468e-02 -5.4514295069756240e-02 0.0000000000000000e+00  -5.4127448839917852e-02 -5.2411513505568171e-02 0.0000000000000000e+00  -2.7023836871430611e-02 -5.2612639871173872e-02 0.0000000000000000e+00  -1.7363772664257693e-01 -7.2622445435547855e-03 0.0000000000000000e+00  -2.7976275520806965e-02 -1.8683101795398952e-02 0.0000000000000000e+00  7.5203898580762651e-02 -1.7509940824838336e-03 0.0000000000000000e+00  7.0715176590657861e-02 6.6686734209620888e-02 0.0000000000000000e+00  -5.5281295024346928e-02 -5.7134518852156223e-02 0.0000000000000000e+00  6.8930885864140576e-02 -5.7458151112692868e-02 0.0000000000000000e+00  -1.5239881655614877e-02 -5.4732283925707781e-02 0.0000000000000000e+00  8.5375892773201269e-03 7.1186467712170626e-03 0.0000000000000000e+00  -5.5971350628101789e-02 6.3987469003994726e-02 0.0000000000000000e+00  -5.5605602857215282e-02 6.2534005890486855e-02 0.0000000000000000e+00  6.6612903630732436e-03 7.3000016430132837e-03 0.0000000000000000e+00  2.3513280958435767e-05 2.4444951116622720e-03 0.0000000000000000e+00  6.7951281918768619e-02 6.7821521147996486e-02 0.0000000000000000e+00  -2.6755939100150949e-02 7.1989572992140441e-02 0.0000000000000000e+00  7.0422702291235595e-02 7.2163475986468537e-02 0.0000000000000000e+00  6.7474989843653729e-02 6.4107906166838008e-02 0.0000000000000000e+00  -4.6807141750833059e-02 6.1482612135350820e-02 0.0000000000000000e+00  1.9197703105106035e-03 -1.9437688880353222e-02 0.0000000000000000e+00  7.5258865783730229e-03 -2.6872946579564830e-04 0.0000000000000000e+00  -5.3957946734635026e-02 -5.5778781222959942e-02 0.0000000000000000e+00  5.2033440470149128e-02 -5.5962720922055065e-02 0.0000000000000000e+00  -4.6939921931206420e-02 6.4346354268179654e-02 0.0000000000000000e+00  -2.5123803722892947e-02 -5.0026489989121431e-02 0.0000000000000000e+00  -4.5071144745183415e-02 6.4412499823126496e-02 0.0000000000000000e+00  -5.1749226956252246e-02 -4.7953205237936961e-02 0.0000000000000000e+00  6.3415224952000721e-02 -5.4501768185311023e-02 0.0000000000000000e+00  -5.5606777737166506e-03 -5.7160638725180457e-02 0.0000000000000000e+00  -5.9160051787834567e-02 6.9425530354960158e-02 0.0000000000000000e+00  -5.8980719668739218e-02 6.8931553240912796e-02 0.0000000000000000e+00  -5.0465817332913721e-02 6.2681903622819432e-02 0.0000000000000000e+00  6.0116764317219705e-02 6.2061837502419691e-02 0.0000000000000000e+00  5.9372052460970409e-02 6.0905740325163209e-02 0.0000000000000000e+00  6.1742706589085372e-02 -4.4756155556004554e-02 0.0000000000000000e+00  -4.6159874690033090e-02 6.9172230892683623e-02 0.0000000000000000e+00  -4.7409647968620225e-02 -4.4580784082831081e-02 0.0000000000000000e+00  -2.4425309614249102e-02 5.0236790176953441e-02 0.0000000000000000e+00  -2.6465205264672109e-02 4.8366607123157324e-02 0.0000000000000000e+00  -2.0063981453680539e-03 4.6244873806104654e-02 0.0000000000000000e+00  -4.5355140373953370e-02 -3.7579951196358055e-02 0.0000000000000000e+00  4.2171668664668295e-02 4.0961037936718799e-02 0.0000000000000000e+00  5.4828563698901952e-03 4.5150647579185925e-03 0.0000000000000000e+00  1.5430719434388481e-02 2.9128550260266715e-03 0.0000000000000000e+00  1.5043361105006369e-03 1.5234152447910486e-02 0.0000000000000000e+00  1.5440748604994355e-03 3.3801165205344331e-03 0.0000000000000000e+00  7.4122492402433331e-03 7.1439005175645484e-03 0.0000000000000000e+00  -1.6024402796546079e-02 3.1036558980135219e-03 0.0000000000000000e+00  -1.7458645929686951e-04 6.4804626512222186e-05 0.0000000000000000e+00  1.09591244662