<?xml version="1.0"?>
<VTKFile type="UnstructuredGrid"  version="0.1"  >
<UnstructuredGrid>
<Piece  NumberOfPoints="16275" NumberOfCells="32468">
<Points>
<DataArray  type="Float64"  NumberOfComponents="3"  format="ascii">-0.5 0.5 0  0.5 0.5 0  0.5 -0.5 0  -0.5 -0.5 0  -1 1 0  1 1 0  1 -1 0  -1 -1 0  -0.4900000000000277 0.5 0  -0.4800000000000555 0.5 0  -0.4700000000000832 0.5 0  -0.4600000000001109 0.5 0  -0.4500000000001387 0.5 0  -0.4400000000001664 0.5 0  -0.4300000000001942 0.5 0  -0.4200000000002219 0.5 0  -0.4100000000002497 0.5 0  -0.4000000000002774 0.5 0  -0.3900000000003052 0.5 0  -0.3800000000003328 0.5 0  -0.3700000000003606 0.5 0  -0.3600000000003883 0.5 0  -0.3500000000004161 0.5 0  -0.3400000000004438 0.5 0  -0.3300000000004716 0.5 0  -0.3200000000004993 0.5 0  -0.3100000000005271 0.5 0  -0.3000000000005548 0.5 0  -0.2900000000005825 0.5 0  -0.2800000000006103 0.5 0  -0.2700000000006381 0.5 0  -0.2600000000006658 0.5 0  -0.2500000000006935 0.5 0  -0.2400000000007212 0.5 0  -0.230000000000749 0.5 0  -0.2200000000007767 0.5 0  -0.2100000000008044 0.5 0  -0.2000000000008322 0.5 0  -0.19000000000086 0.5 0  -0.1800000000008877 0.5 0  -0.1700000000009154 0.5 0  -0.1600000000009431 0.5 0  -0.1500000000009709 0.5 0  -0.1400000000009986 0.5 0  -0.1300000000010264 0.5 0  -0.1200000000010541 0.5 0  -0.1100000000010818 0.5 0  -0.1000000000011096 0.5 0  -0.09000000000113734 0.5 0  -0.08000000000116503 0.5 0  -0.07000000000119283 0.5 0  -0.06000000000122058 0.5 0  -0.05000000000124827 0.5 0  -0.04000000000127607 0.5 0  -0.03000000000130376 0.5 0  -0.02000000000133151 0.5 0  -0.01000000000135925 0.5 0  -1.376121439022882e-12 0.5 0  0.009999999998640763 0.5 0  0.01999999999866864 0.5 0  0.02999999999869629 0.5 0  0.03999999999872406 0.5 0  0.04999999999875182 0.5 0  0.05999999999877947 0.5 0  0.06999999999880724 0.5 0  0.079999999998835 0.5 0  0.08999999999886266 0.5 0  0.09999999999889042 0.5 0  0.1099999999989182 0.5 0  0.1199999999989459 0.5 0  0.1299999999989737 0.5 0  0.1399999999990014 0.5 0  0.1499999999990291 0.5 0  0.1599999999990568 0.5 0  0.1699999999990847 0.5 0  0.1799999999991124 0.5 0  0.1899999999991401 0.5 0  0.1999999999991678 0.5 0  0.2099999999991955 0.5 0  0.2199999999992234 0.5 0  0.2299999999992511 0.5 0  0.2399999999992788 0.5 0  0.2499999999993066 0.5 0  0.2599999999993342 0.5 0  0.269999999999362 0.5 0  0.2799999999993897 0.5 0  0.2899999999994175 0.5 0  0.2999999999994452 0.5 0  0.3099999999994729 0.5 0  0.3199999999995007 0.5 0  0.3299999999995284 0.5 0  0.3399999999995562 0.5 0  0.3499999999995839 0.5 0  0.3599999999996116 0.5 0  0.3699999999996393 0.5 0  0.379999999999667 0.5 0  0.3899999999996949 0.5 0  0.3999999999997226 0.5 0  0.4099999999997503 0.5 0  0.419999999999778 0.5 0  0.4299999999998058 0.5 0  0.4399999999998336 0.5 0  0.4499999999998613 0.5 0  0.4599999999998891 0.5 0  0.4699999999999167 0.5 0  0.4799999999999445 0.5 0  0.4899999999999722 0.5 0  0.5 0.4900000000000277 0  0.5 0.4800000000000555 0  0.5 0.4700000000000832 0  0.5 0.4600000000001109 0  0.5 0.4500000000001387 0  0.5 0.4400000000001664 0  0.5 0.4300000000001942 0  0.5 0.4200000000002219 0  0.5 0.4100000000002497 0  0.5 0.4000000000002774 0  0.5 0.3900000000003052 0  0.5 0.3800000000003328 0  0.5 0.3700000000003606 0  0.5 0.3600000000003883 0  0.5 0.3500000000004161 0  0.5 0.3400000000004438 0  0.5 0.3300000000004716 0  0.5 0.3200000000004993 0  0.5 0.3100000000005271 0  0.5 0.3000000000005548 0  0.5 0.2900000000005825 0  0.5 0.2800000000006103 0  0.5 0.2700000000006381 0  0.5 0.2600000000006658 0  0.5 0.2500000000006935 0  0.5 0.2400000000007212 0  0.5 0.230000000000749 0  0.5 0.2200000000007767 0  0.5 0.2100000000008044 0  0.5 0.2000000000008322 0  0.5 0.19000000000086 0  0.5 0.1800000000008877 0  0.5 0.1700000000009154 0  0.5 0.1600000000009431 0  0.5 0.1500000000009709 0  0.5 0.1400000000009986 0  0.5 0.1300000000010264 0  0.5 0.1200000000010541 0  0.5 0.1100000000010818 0  0.5 0.1000000000011096 0  0.5 0.09000000000113734 0  0.5 0.08000000000116503 0  0.5 0.07000000000119283 0  0.5 0.06000000000122058 0  0.5 0.05000000000124827 0  0.5 0.04000000000127607 0  0.5 0.03000000000130376 0  0.5 0.02000000000133151 0  0.5 0.01000000000135925 0  0.5 1.376121439022882e-12 0  0.5 -0.009999999998640763 0  0.5 -0.01999999999866864 0  0.5 -0.02999999999869629 0  0.5 -0.03999999999872406 0  0.5 -0.04999999999875182 0  0.5 -0.05999999999877947 0  0.5 -0.06999999999880724 0  0.5 -0.079999999998835 0  0.5 -0.08999999999886266 0  0.5 -0.09999999999889042 0  0.5 -0.1099999999989182 0  0.5 -0.1199999999989459 0  0.5 -0.1299999999989737 0  0.5 -0.1399999999990014 0  0.5 -0.1499999999990291 0  0.5 -0.1599999999990568 0  0.5 -0.1699999999990847 0  0.5 -0.1799999999991124 0  0.5 -0.1899999999991401 0  0.5 -0.1999999999991678 0  0.5 -0.2099999999991955 0  0.5 -0.2199999999992234 0  0.5 -0.2299999999992511 0  0.5 -0.2399999999992788 0  0.5 -0.2499999999993066 0  0.5 -0.2599999999993342 0  0.5 -0.269999999999362 0  0.5 -0.2799999999993897 0  0.5 -0.2899999999994175 0  0.5 -0.2999999999994452 0  0.5 -0.3099999999994729 0  0.5 -0.3199999999995007 0  0.5 -0.3299999999995284 0  0.5 -0.3399999999995562 0  0.5 -0.3499999999995839 0  0.5 -0.3599999999996116 0  0.5 -0.3699999999996393 0  0.5 -0.379999999999667 0  0.5 -0.3899999999996949 0  0.5 -0.3999999999997226 0  0.5 -0.4099999999997503 0  0.5 -0.419999999999778 0  0.5 -0.4299999999998058 0  0.5 -0.4399999999998336 0  0.5 -0.4499999999998613 0  0.5 -0.4599999999998891 0  0.5 -0.4699999999999167 0  0.5 -0.4799999999999445 0  0.5 -0.4899999999999722 0  0.4900000000000277 -0.5 0  0.4800000000000555 -0.5 0  0.4700000000000832 -0.5 0  0.4600000000001109 -0.5 0  0.4500000000001387 -0.5 0  0.4400000000001664 -0.5 0  0.4300000000001942 -0.5 0  0.4200000000002219 -0.5 0  0.4100000000002497 -0.5 0  0.4000000000002774 -0.5 0  0.3900000000003052 -0.5 0  0.3800000000003328 -0.5 0  0.3700000000003606 -0.5 0  0.3600000000003883 -0.5 0  0.3500000000004161 -0.5 0  0.3400000000004438 -0.5 0  0.3300000000004716 -0.5 0  0.3200000000004993 -0.5 0  0.3100000000005271 -0.5 0  0.3000000000005548 -0.5 0  0.2900000000005825 -0.5 0  0.2800000000006103 -0.5 0  0.2700000000006381 -0.5 0  0.2600000000006658 -0.5 0  0.2500000000006935 -0.5 0  0.2400000000007212 -0.5 0  0.230000000000749 -0.5 0  0.2200000000007767 -0.5 0  0.2100000000008044 -0.5 0  0.2000000000008322 -0.5 0  0.19000000000086 -0.5 0  0.1800000000008877 -0.5 0  0.1700000000009154 -0.5 0  0.1600000000009431 -0.5 0  0.1500000000009709 -0.5 0  0.1400000000009986 -0.5 0  0.1300000000010264 -0.5 0  0.1200000000010541 -0.5 0  0.1100000000010818 -0.5 0  0.1000000000011096 -0.5 0  0.09000000000113734 -0.5 0  0.08000000000116503 -0.5 0  0.07000000000119283 -0.5 0  0.06000000000122058 -0.5 0  0.05000000000124827 -0.5 0  0.04000000000127607 -0.5 0  0.03000000000130376 -0.5 0  0.02000000000133151 -0.5 0  0.01000000000135925 -0.5 0  1.376121439022882e-12 -0.5 0  -0.009999999998640763 -0.5 0  -0.01999999999866864 -0.5 0  -0.02999999999869629 -0.5 0  -0.03999999999872406 -0.5 0  -0.04999999999875182 -0.5 0  -0.05999999999877947 -0.5 0  -0.06999999999880724 -0.5 0  -0.079999999998835 -0.5 0  -0.08999999999886266 -0.5 0  -0.09999999999889042 -0.5 0  -0.1099999999989182 -0.5 0  -0.1199999999989459 -0.5 0  -0.1299999999989737 -0.5 0  -0.1399999999990014 -0.5 0  -0.1499999999990291 -0.5 0  -0.1599999999990568 -0.5 0  -0.1699999999990847 -0.5 0  -0.1799999999991124 -0.5 0  -0.1899999999991401 -0.5 0  -0.1999999999991678 -0.5 0  -0.2099999999991955 -0.5 0  -0.2199999999992234 -0.5 0  -0.2299999999992511 -0.5 0  -0.2399999999992788 -0.5 0  -0.2499999999993066 -0.5 0  -0.2599999999993342 -0.5 0  -0.269999999999362 -0.5 0  -0.2799999999993897 -0.5 0  -0.2899999999994175 -0.5 0  -0.2999999999994452 -0.5 0  -0.3099999999994729 -0.5 0  -0.3199999999995007 -0.5 0  -0.3299999999995284 -0.5 0  -0.3399999999995562 -0.5 0  -0.3499999999995839 -0.5 0  -0.3599999999996116 -0.5 0  -0.3699999999996393 -0.5 0  -0.379999999999667 -0.5 0  -0.3899999999996949 -0.5 0  -0.3999999999997226 -0.5 0  -0.4099999999997503 -0.5 0  -0.419999999999778 -0.5 0  -0.4299999999998058 -0.5 0  -0.4399999999998336 -0.5 0  -0.4499999999998613 -0.5 0  -0.4599999999998891 -0.5 0  -0.4699999999999167 -0.5 0  -0.4799999999999445 -0.5 0  -0.4899999999999722 -0.5 0  -0.5 -0.4900000000000277 0  -0.5 -0.4800000000000555 0  -0.5 -0.4700000000000832 0  -0.5 -0.4600000000001109 0  -0.5 -0.4500000000001387 0  -0.5 -0.4400000000001664 0  -0.5 -0.4300000000001942 0  -0.5 -0.4200000000002219 0  -0.5 -0.4100000000002497 0  -0.5 -0.4000000000002774 0  -0.5 -0.3900000000003052 0  -0.5 -0.3800000000003328 0  -0.5 -0.3700000000003606 0  -0.5 -0.3600000000003883 0  -0.5 -0.3500000000004161 0  -0.5 -0.3400000000004438 0  -0.5 -0.3300000000004716 0  -0.5 -0.3200000000004993 0  -0.5 -0.3100000000005271 0  -0.5 -0.3000000000005548 0  -0.5 -0.2900000000005825 0  -0.5 -0.2800000000006103 0  -0.5 -0.2700000000006381 0  -0.5 -0.2600000000006658 0  -0.5 -0.2500000000006935 0  -0.5 -0.2400000000007212 0  -0.5 -0.230000000000749 0  -0.5 -0.2200000000007767 0  -0.5 -0.2100000000008044 0  -0.5 -0.2000000000008322 0  -0.5 -0.19000000000086 0  -0.5 -0.1800000000008877 0  -0.5 -0.1700000000009154 0  -0.5 -0.1600000000009431 0  -0.5 -0.1500000000009709 0  -0.5 -0.1400000000009986 0  -0.5 -0.1300000000010264 0  -0.5 -0.1200000000010541 0  -0.5 -0.1100000000010818 0  -0.5 -0.1000000000011096 0  -0.5 -0.09000000000113734 0  -0.5 -0.08000000000116503 0  -0.5 -0.07000000000119283 0  -0.5 -0.06000000000122058 0  -0.5 -0.05000000000124827 0  -0.5 -0.04000000000127607 0  -0.5 -0.03000000000130376 0  -0.5 -0.02000000000133151 0  -0.5 -0.01000000000135925 0  -0.5 -1.376121439022882e-12 0  -0.5 0.009999999998640763 0  -0.5 0.01999999999866864 0  -0.5 0.02999999999869629 0  -0.5 0.03999999999872406 0  -0.5 0.04999999999875182 0  -0.5 0.05999999999877947 0  -0.5 0.06999999999880724 0  -0.5 0.079999999998835 0  -0.5 0.08999999999886266 0  -0.5 0.09999999999889042
[...]
<PointData  Vectors="f_58-0"> 
<DataArray  type="Float64"  Name="f_58-0"  NumberOfComponents="3" format="ascii">2.8131753991838451e-02 7.0109321077275770e-03 0.0000000000000000e+00  -1.0685410486730331e-02 6.0112346446720552e-03 0.0000000000000000e+00  -2.7823055579264837e-02 -3.3863086371154275e-02 0.0000000000000000e+00  -6.3298063207820068e-02 9.4269890601601694e-02 0.0000000000000000e+00  7.4675083117936867e-03 0.0000000000000000e+00 0.0000000000000000e+00  -1.7336870191609611e-02 0.0000000000000000e+00 0.0000000000000000e+00  7.5190725204534840e-03 0.0000000000000000e+00 0.0000000000000000e+00  -5.6522325669422025e-03 0.0000000000000000e+00 0.0000000000000000e+00  4.9302954825694387e-03 2.5311988845533218e-03 0.0000000000000000e+00  4.8253447240512240e-03 2.5043711441038775e-02 0.0000000000000000e+00  -1.4247213016432558e-02 3.0561618930370496e-03 0.0000000000000000e+00  4.7365857951256916e-03 2.3098506579778619e-02 0.0000000000000000e+00  2.0476078283877003e-02 -1.5194825669811975e-02 0.0000000000000000e+00  3.5144687140000706e-02 -1.2772801205325996e-02 0.0000000000000000e+00  4.1420745445177001e-02 1.2204479722129145e-03 0.0000000000000000e+00  7.8676553358947906e-04 1.1195191186749732e-02 0.0000000000000000e+00  -6.8438288796765960e-03 1.9763075824276295e-02 0.0000000000000000e+00  2.6333255924199796e-02 -1.5093316270317987e-02 0.0000000000000000e+00  1.1911171172630537e-03 2.5321436615142461e-02 0.0000000000000000e+00  -2.4114878226031253e-03 2.3372474130074525e-02 0.0000000000000000e+00  2.3419006209849547e-02 1.6340127429547724e-03 0.0000000000000000e+00  -3.8012541645905624e-04 1.9835978717541925e-04 0.0000000000000000e+00  -1.8858980991899185e-02 2.0797106277689673e-02 0.0000000000000000e+00  1.5653847212540706e-02 1.7491894553436919e-02 0.0000000000000000e+00  1.1972706155798622e-02 1.9928511404789954e-02 0.0000000000000000e+00  5.9658183440058866e-03 8.0817365142743670e-03 0.0000000000000000e+00  1.7339879637828636e-02 1.7858404163633875e-02 0.0000000000000000e+00  1.5238545340522467e-02 2.1095855344899260e-03 0.0000000000000000e+00  1.6131177191922301e-02 -1.2820576284265103e-02 0.0000000000000000e+00  -1.1416454177836793e-02 8.3884309405347201e-03 0.0000000000000000e+00  3.1863151341408693e-03 2.2829195826227795e-03 0.0000000000000000e+00  2.9145862758781305e-03 -6.5371904741249511e-03 0.0000000000000000e+00  -2.8568221679426283e-03 4.1208908796487404e-03 0.0000000000000000e+00  -1.9132236874808823e-03 -2.3848663796475775e-03 0.0000000000000000e+00  -1.1722635757744100e-02 -7.7189889386699374e-06 0.0000000000000000e+00  -1.2112095461278860e-02 -1.2491514721738315e-02 0.0000000000000000e+00  -8.5359994493576698e-03 -1.5848365297633285e-03 0.0000000000000000e+00  5.7085306260107656e-03 -1.1698817213213209e-02 0.0000000000000000e+00  1.7166260412946513e-02 7.0413818362523315e-03 0.0000000000000000e+00  2.9732307156462754e-04 -1.3558716421450560e-02 0.0000000000000000e+00  -1.3101136275824233e-02 5.9608316300113415e-03 0.0000000000000000e+00  -1.5311671148484010e-02 1.8449570750343963e-02 0.0000000000000000e+00  -1.5175086620770908e-02 6.7842498199388252e-03 0.0000000000000000e+00  6.5950715545993951e-03 7.2430390381178350e-03 0.0000000000000000e+00  7.0519238356170737e-03 1.6319528439403354e-02 0.0000000000000000e+00  1.0155980369584716e-03 -1.3535953456324889e-02 0.0000000000000000e+00  -1.2992702865537940e-02 -1.4111874090376066e-02 0.0000000000000000e+00  6.4571648916781615e-03 1.6453732262309225e-02 0.0000000000000000e+00  -1.4434128325114527e-02 -1.4861858811770478e-02 0.0000000000000000e+00  -1.6400619994780343e-02 -2.3412644423010821e-03 0.0000000000000000e+00  -4.4351145975433034e-03 -3.0754953075502142e-03 0.0000000000000000e+00  -1.5625037456057186e-02 -1.5146760064552591e-02 0.0000000000000000e+00  5.6054859059451023e-03 5.5824334102361761e-03 0.0000000000000000e+00  -1.6252796463119824e-02 -8.3713246944739793e-04 0.0000000000000000e+00  3.4428178292298436e-03 -6.3502014504533367e-03 0.0000000000000000e+00  3.6502539831665022e-03 -1.6123390966392089e-02 0.0000000000000000e+00  -5.6309521978325089e-03 -1.6033762117278427e-02 0.0000000000000000e+00  -5.9301957500744870e-03 -1.3558559307903303e-02 0.0000000000000000e+00  -1.4370830010435534e-02 -4.2446364520603375e-03 0.0000000000000000e+00  -3.0556625552536293e-03 -1.5053066598187330e-02 0.0000000000000000e+00  -1.1592693633494723e-02 -2.0337421817662353e-04 0.0000000000000000e+00  5.5792466402000439e-05 -1.7139087338589390e-02 0.0000000000000000e+00  -1.6950417972524043e-02 -1.7852934882267357e-02 0.0000000000000000e+00  4.9009689626828747e-03 -1.8047356064944963e-02 0.0000000000000000e+00  3.0655723284291801e-02 4.2499237513242832e-03 0.0000000000000000e+00  1.1670384801579400e-04 4.4691040852371652e-03 0.0000000000000000e+00  5.1531954467493634e-03 -1.6729138358578418e-02 0.0000000000000000e+00  4.9166655738721518e-03 2.1821232672230295e-02 0.0000000000000000e+00  4.4544950108127536e-03 -1.1455779178558874e-02 0.0000000000000000e+00  -1.3135656104105846e-02 -1.2963658905442472e-02 0.0000000000000000e+00  -1.1026400991749129e-03 -1.3031457459219704e-03 0.0000000000000000e+00  -1.0426038756255974e-03 3.6261139296534023e-03 0.0000000000000000e+00  -1.6983663669243490e-02 -1.6793037432438998e-02 0.0000000000000000e+00  3.5070777927177395e-03 -8.1644913397058779e-04 0.0000000000000000e+00  3.8169660221672778e-03 -1.5858890000848790e-02 0.0000000000000000e+00  -9.7941737229712191e-03 2.6111778984336796e-03 0.0000000000000000e+00  1.0441324036922874e-03 7.7501104198741369e-04 0.0000000000000000e+00  -1.6750466173766455e-02 2.3267780449846582e-03 0.0000000000000000e+00  7.7190200190072023e-04 1.0433533974107297e-03 0.0000000000000000e+00  4.3457904195988049e-03 -1.6420841133336608e-02 0.0000000000000000e+00  4.5155072011868911e-03 -1.6501845878525063e-02 0.0000000000000000e+00  2.3705194953230379e-02 -4.6719857912078425e-05 0.0000000000000000e+00  -1.6939194435517235e-02 -1.7371921953735114e-02 0.0000000000000000e+00  -4.1928835311331319e-03 -4.7542846483516268e-03 0.0000000000000000e+00  -1.0797825723338478e-02 -1.1410831547016868e-03 0.0000000000000000e+00  -1.1261050601856634e-02 -1.0977918089150213e-02 0.0000000000000000e+00  -1.7390247290862693e-02 -1.7326163847792460e-02 0.0000000000000000e+00  4.5558013348107849e-03 -1.7477714106941558e-02 0.0000000000000000e+00  1.6309175910396941e-02 2.1452163579280437e-03 0.0000000000000000e+00  4.8140927517232408e-03 -1.6988588982223326e-02 0.0000000000000000e+00  -1.7248059195386720e-02 -1.6803528149935514e-02 0.0000000000000000e+00  1.7925135160280495e-02 1.5802934145644364e-03 0.0000000000000000e+00  4.9526719132863741e-03 1.8779634227495571e-02 0.0000000000000000e+00  -3.2624514301437227e-03 -3.1849672274246025e-03 0.0000000000000000e+00  -2.5296939553428300e-03 -2.0766555409547985e-03 0.0000000000000000e+00  -1.7601903212182066e-02 4.7907368227982118e-03 0.0000000000000000e+00  -1.8041945929822847e-02 1.0102045279661716e-02 0.0000000000000000e+00  -1.7779371463524034e-02 4.8102440437317482e-03 0.0000000000000000e+00  4.6998825453960381e-03 1.5714104290239173e-02 0.0000000000000000e+00  4.8309965969439272e-03 -1.7360026778070935e-02 0.0000000000000000e+00  -1.7629725570900291e-02 3.0102168009255989e-03 0.0000000000000000e+00  2.8523535795629451e-03 -1.7706298888204741e-02 0.0000000000000000e+00  -1.4047426248486863e-02 -1.4599187141674838e-02 0.0000000000000000e+00  -8.6088135336383318e-04 -1.3870209824482789e-02 0.0000000000000000e+00  6.9988669712745585e-03 -1.5121935031473660e-02 0.0000000000000000e+00  -1.4742482889411395e-02 5.4180072576183458e-04 0.0000000000000000e+00  7.7206072579360085e-03 2.1583974808610604e-03 0.0000000000000000e+00  -3.5713756962954717e-03 -1.4611788111915419e-03 0.0000000000000000e+00  -6.7430144591130066e-03 6.1010950768383579e-04 0.0000000000000000e+00  -7.7662862303230491e-04 -1.2670485243047288e-02 0.0000000000000000e+00  -1.9034083108830514e-02 -2.7060942065229051e-03 0.0000000000000000e+00  -1.9112955259595762e-02 -2.7291096131659199e-03 0.0000000000000000e+00  -2.2508090926269698e-02 -2.2390158123489726e-02 0.0000000000000000e+00  9.7480608857950380e-06 -2.2093838649605815e-02 0.0000000000000000e+00  1.5657975942292171e-01 -1.0519429676036134e-01 0.0000000000000000e+00  7.9999771583445678e-02 -2.2489248657010044e-01 0.0000000000000000e+00  -2.3581165183124236e-01 1.1286921581210815e-03 0.0000000000000000e+00  8.1970029723996488e-02 6.1180839304046823e-02 0.0000000000000000e+00  -1.1272136380536195e-02 -1.8004835880206724e-01 0.0000000000000000e+00  -1.7081804311826426e-01 -1.1599829178430318e-02 0.0000000000000000e+00  -8.8995089183799170e-02 7.9839992572226150e-03 0.0000000000000000e+00  -1.0633923891473220e-02 -1.1483835026653179e-02 0.0000000000000000e+00  -1.0287472381659159e-01 -1.4058005337706278e-01 0.0000000000000000e+00  -9.8205105487468206e-02 -1.6141961619582156e-02 0.0000000000000000e+00  -9.5547275312104496e-02 -1.6245639695333436e-02 0.0000000000000000e+00  -1.2528713104472250e-01 -1.2282899147905260e-01 0.0000000000000000e+00  -1.7311353015107903e-02 -7.5607424182551845e-03 0.0000000000000000e+00  -6.8137535541459762e-03 7.1500532103641371e-04 0.0000000000000000e+00  -1.6226486296181973e-02 -2.0529698158780630e-02 0.0000000000000000e+00  -1.6650942009560896e-02 -8.0330300752383607e-03 0.0000000000000000e+00  -1.7314039261130738e-02 -2.1096955314119450e-02 0.0000000000000000e+00  -1.6830553374523646e-02 -1.7015261815377561e-02 0.0000000000000000e+00  -2.1956635468913775e-02 -1.2321561876944833e-02 0.0000000000000000e+00  -2.0937609433870429e-02 -2.0092401317225620e-02 0.0000000000000000e+00  -5.1556623780056918e-02 -5.0327933628621702e-02 0.0000000000000000e+00  4.0365758923192996e-02 -5.6763410123374200e-02 0.0000000000000000e+00  -1.3841554341956457e-02 -1.4465165517828039e-02 0.0000000000000000e+00  5.9749128148289398e-04 -2.1662907265063598e-02 0.0000000000000000e+00  -2.1341404797378061e-02 -1.3648469420313903e-02 0.0000000000000000e+00  5.0222643421551623e-04 -2.1156478325060128e-02 0.0000000000000000e+00  -7.1191100195908019e-02 -9.7173329238088857e-03 0.0000000000000000e+00  3.2945121107728091e-02 -6.9495812319273889e-02 0.0000000000000000e+00  -7.9727911686424038e-03 -1.9771250001892858e-02 0.0000000000000000e+00  7.8840188012815134e-04 -2.0019195467328697e-02 0.0000000000000000e+00  -6.9971588875167110e-03 -8.7137440588715115e-02 0.0000000000000000e+00  -7.2100901685880374e-03 -8.3275179251510179e-02 0.0000000000000000e+00  1.3397744289608474e-02 -7.0087135050166307e-03 0.0000000000000000e+00  -8.7264403243061922e-02 -7.4175355464341794e-03 0.0000000000000000e+00  -3.2355471717697572e-02 -2.2873781195060162e-02 0.0000000000000000e+00  -3.1855436742116258e-02 -2.3381146839861346e-02 0.0000000000000000e+00  -2.3900109796203942e-02 3.5048365803109410e-02 0.0000000000000000e+00  -3.1110359622145142e-02 -3.0504494066590133e-02 0.0000000000000000e+00  -2.0809937694957460e-02 -2.4628595070831170e-02 0.0000000000000000e+00  -2.4140886749370649e-02 -2.0084874288248969e-02 0.0000000000000000e+00  -2.4344341353123872e-02 -2.0299931594627316e-02 0.0000000000000000e+00  -2.3608399069209904e-02 -6.8402046477217060e-03 0.0000000000000000e+00  -2.1629969223351194e-02 -7.3452117408610521e-03 0.0000000000000000e+00  -1.9846334519482881e-02 -2.0027022239034447e-02 0.0000000000000000e+00  -1.9803707655342666e-02 -2.1158668031366370e-02 0.0000000000000000e+00  -2.0612624830577832e-02 -7.3315422381482901e-03 0.0000000000000000e+00  1.2146273078135386e-03 -1.9883330381202172e-02 0.0000000000000000e+00  -7.6198114676169866e-03 -1.6650635025098288e-02 0.0000000000000000e+00  1.0784785687695715e-03 -2.0249765925842766e-02 0.0000000000000000e+00  -1.6276070808036412e-02 -2.0417995114948437e-02 0.0000000000000000e+00  -1.6793590089483831e-02 -1.7381289449801409e-02 0.0000000000000000e+00  -2.3676651106949505e-02 -2.6972311654718466e-02 0.0000000000000000e+00  -2.6708762262796986e-02 -2.6414431749213822e-02 0.0000000000000000e+00  -2.7392256101722957e-02 -2.7126297336198112e-02 0.0000000000000000e+00  -3.9414971198874035e-02 -2.0372349878761731e-02 0.0000000000000000e+00  -1.9778499422784142e-02 -3.8062327476793230e-02 0.0000000000000000e+00  2.7129599127289229e-02 -3.8450521703474030e-02 0.0000000000000000e+00  -2.7868089080477040e-02 -1.7437581152572655e-03 0.0000000000000000e+00  -2.8654835167814800e-02 -2.6900084893139359e-02 0.0000000000000000e+00  -2.8733813281174768e-02 -2.7374638802195213e-02 0.0000000000000000e+00  -2.5036328071293766e-02 -2.8312104145839442e-02 0.0000000000000000e+00  -1.9377929976342374e-02 -1.9175868907406680e-02 0.0000000000000000e+00  -7.2721642173860885e-03 1.7137840651125721e-03 0.0000000000000000e+00  -1.9359708663353487e-02 -1.9617163451040701e-02 0.0000000000000000e+00  1.4130901424904726e-02 -2.8506152069775161e-02 0.0000000000000000e+00  -3.0350621750706099e-02 -3.0611793780441775e-02 0.0000000000000000e+00  -3.1263568654173846e-02 -3.2125660782264864e-02 0.0000000000000000e+00  -2.6914157920552673e-02 -2.6673539371275218e-02 0.0000000000000000e+00  1.2418168908255766e-02 -2.7771360622992257e-02 0.0000000000000000e+00  -2.8558729443751551e-02 -2.3973716210351780e-02 0.0000000000000000e+00  -2.8245611732740820e-02 -4.3146022572920209e-03 0.0000000000000000e+00  2.3826486073793288e-02 -1.9813402121117738e-02 0.0000000000000000e+00  1.2599302851494892e-02 -1.9639469476213402e-02 0.0000000000000000e+00  -4.2999839180260027e-02 -1.7425990816117263e-02 0.0000000000000000e+00  -4.0497618558546250e-02 -2.1627003246337560e-02 0.0000000000000000e+00  -2.2192000318500296e-02 -4.0962693757907578e-02 0.0000000000000000e+00  -3.6689009667990061e-02 -3.7019043061097962e-02 0.0000000000000000e+00  -2.4907088273178075e-02 -2.4698005687878322e-02 0.0000000000000000e+00  -2.4672752254088361e-02 -3.6424562284886733e-02 0.0000000000000000e+00  -3.6447725632501600e-02 -3.6626053631163433e-02 0.0000000000000000e+00  7.0987979793904702e-03 7.0871576925897557e-03 0.0000000000000000e+00  7.2473177735614290e-03 8.5790825084320534e-03 0.0000000000000000e+00  6.9058775902493194e-03 -2.6898434681432650e-04 0.0000000000000000e+00  3.5998414204468714e-04 7.4478806366783355e-03 0.0000000000000000e+00  7.3300130411421988e-03 7.1940206391660081e-03 0.0000000000000000e+00  -3.0927340407286206e-02 -2.8504521421646146e-02 0.0000000000000000e+00  -3.0496606593149640e-02 -3.0387319969360494e-02 0.0000000000000000e+00  3.5864188301268658e-03 -8.2143470804686301e-04 0.0000000000000000e+00  -2.9579154266220205e-02 3.4786888593132262e-03 0.0000000000000000e+00  -2.9424410196239301e-02 -2.9106589838371697e-02 0.0000000000000000e+00  -2.8829332351218429e-02 -2.8755771810177841e-02 0.0000000000000000e+00  -2.7762173434274656e-02 -2.8071684520446980e-02 0.0000000000000000e+00  -2.8398400278569474e-02 -3.1123654064979224e-02 0.0000000000000000e+00  -3.0586591302563235e-02 -2.8283125883692781e-02 0.0000000000000000e+00  -3.0717236023715604e-02 -2.8627934056661593e-02 0.0000000000000000e+00  -2.8186757527319663e-02 -2.9856263860848518e-02 0.0000000000000000e+00  -3.1220328019844222e-02 -2.9287586851793588e-02 0.0000000000000000e+00  -3.0707033695473718e-02 -3.1847598504434013e-02 0.0000000000000000e+00  -3.1011767550464711e-02 -3.1898007255964041e-02 0.0000000000000000e+00  -3.2649723173703772e-02 -1.9650850875171082e-02 0.0000000000000000e+00  -3.0482094497178935e-02 -3.5061545748977289e-02 0.0000000000000000e+00  -2.9258190583911700e-02 -3.4502615347144848e-02 0.0000000000000000e+00  -2.7906042360815817e-02 -2.1229953591951629e-02 0.0000000000000000e+00  -2.7630180655641035e-02 -2.7159441358945838e-02 0.0000000000000000e+00  -2.7713932592691812e-02 -2.1015836130687943e-02 0.0000000000000000e+00  -5.3244849173038804e-03 -5.4723389133179111e-03 0.0000000000000000e+00  -2.3934719922180995e-02 -2.3563337277360662e-02 0.0000000000000000e+00  2.3500046340461812e-03 -1.6737925097453268e-02 0.0000000000000000e+00  -1.8287455812737920e-02 -2.3276519781025747e-02 0.0000000000000000e+00  9.8268652276270875e-04 -1.4570306974572360e-02 0.0000000000000000e+00  -1.4958081388304550e-02 -1.0669453122907910e-02 0.0000000000000000e+00  -2.2489886550836519e-02 2.1262247886742270e-03 0.0000000000000000e+00  -2.2094832686066431e-02 -1.7965581453234226e-02 0.0000000000000000e+00  -1.8223504893292202e-02 -1.8131843870041894e-02 0.0000000000000000e+00  2.9701136593736278e-02 1.5001168898730677e-02 0.0000000000000000e+00  -1.7679086244961589e-02 -5.1014186719655429e-02 0.0000000000000000e+00  -1.8032494803492852e-02 -2.6192219357727808e-02 0.0000000000000000e+00  -2.7074385355294741e-02 -2.8415468482830050e-02 0.0000000000000000e+00  -3.7671916145200303e-02 -2.8752672313526288e-02 0.0000000000000000e+00  3.0683482970819898e-02 1.4655453809470682e-02 0.0000000000000000e+00  -3.6739726366462555e-02 -4.2142858752959873e-02 0.0000000000000000e+00  -1.3467958473642211e-01 -1.7916326879192732e-02 0.0000000000000000e+00  -1.3291659803176797e-01 -1.2731783051098899e-01 0.0000000000000000e+00  1.7128612054383711e-02 1.3692196111787378e-02 0.0000000000000000e+00  -1.3079759665556953e-01 1.3791386666530554e-02 0.0000000000000000e+00  7.6317911959093328e-03 1.7832416470658707e-02 0.0000000000000000e+00  -9.9227361745053179e-03 -8.7839985784940820e-03 0.0000000000000000e+00  1.3759248122252873e-02 -1.2470808721287929e-01 0.0000000000000000e+00  1.6015093760091054e-02 -1.2451370399114094e-01 0.0000000000000000e+00  -8.4239379881703748e-03 -8.7911777074022052e-03 0.0000000000000000e+00  1.1642928567689335e-03 -1.6063789146867054e-03 0.0000000000000000e+00  -1.3538556257609563e-01 -1.3832709216891392e-01 0.0000000000000000e+00  2.0392901823344124e-02 -1.5160869156500234e-01 0.0000000000000000e+00  -1.4992322348902784e-01 -1.4756636499928569e-01 0.0000000000000000e+00  -1.4118573786519073e-01 -1.4077410236725746e-01 0.0000000000000000e+00  1.3507203771966677e-02 -1.3602268546081531e-01 0.0000000000000000e+00  -1.2165743816001963e-03 -5.3199991935931777e-03 0.0000000000000000e+00  -8.8238303386198678e-03 1.4886424134689137e-03 0.0000000000000000e+00  1.0495757376608791e-02 1.1358134247098962e-02 0.0000000000000000e+00  -1.0730518932963801e-01 1.0138114596020511e-02 0.0000000000000000e+00  1.7614069126105941e-02 -1.3019001853776765e-01 0.0000000000000000e+00  -4.4259244229578072e-03 7.4170674436536757e-03 0.0000000000000000e+00  1.8211361597642341e-02 -1.2697587447383490e-01 0.0000000000000000e+00  6.6889309704373470e-02 5.5786063781046204e-02 0.0000000000000000e+00  -1.2013478928301878e-01 7.4435938888580924e-02 0.0000000000000000e+00  4.9360598449973486e-03 7.9582609635317728e-02 0.0000000000000000e+00  8.8836954135163362e-02 -1.1921171562390491e-01 0.0000000000000000e+00  8.6727723120339648e-02 -1.1635223266856515e-01 0.0000000000000000e+00  6.4752755793692921e-03 -1.3505749581513876e-01 0.0000000000000000e+00  -1.3611332718429570e-01 -1.3583450091015742e-01 0.0000000000000000e+00  -1.3736470845971141e-01 -1.3757079030705185e-01 0.0000000000000000e+00  -1.3769843786232536e-01 1.2553360259097559e-02 0.0000000000000000e+00  3.2141374629998061e-02 -1.3881529918910307e-01 0.0000000000000000e+00  3.7257403453466849e-02 2.3108268461474280e-02 0.0000000000000000e+00  7.7633616981755998e-02 -2.2593435530860573e-02 0.0000000000000000e+00  7.6791032720106484e-02 -1.7191444557589867e-02 0.0000000000000000e+00  -5.6800906005903002e-03 -4.5130099336076430e-02 0.0000000000000000e+00  1.1225323738278528e-01 1.1105181362168223e-01 0.0000000000000000e+00  -4.8209922702476163e-02 -3.1710469583924934e-02 0.0000000000000000e+00  2.1892836488814238e-02 -1.3389326372219738e-02 0.0000000000000000e+00  -1.3705404238843363e-02 -1.9846208036612785e-03 0.0000000000000000e+00  -1.2522016841334216e-04 -1.3459575282245520e-02 0.0000000000000000e+00  -1.7358992952891682e-04 -2.2738728882724232e-03 0.0000000000000000e+00  -6.8165419550037598e-03 -6.7842980583938785e-03 0.0000000000000000e+00  -4.6124466957764617e-03 -1.9157499169722048e-03 0.000000