<?xml version="1.0"?>
<VTKFile type="UnstructuredGrid"  version="0.1"  >
<UnstructuredGrid>
<Piece  NumberOfPoints="16275" NumberOfCells="32468">
<Points>
<DataArray  type="Float64"  NumberOfComponents="3"  format="ascii">-0.5 0.5 0  0.5 0.5 0  0.5 -0.5 0  -0.5 -0.5 0  -1 1 0  1 1 0  1 -1 0  -1 -1 0  -0.4900000000000277 0.5 0  -0.4800000000000555 0.5 0  -0.4700000000000832 0.5 0  -0.4600000000001109 0.5 0  -0.4500000000001387 0.5 0  -0.4400000000001664 0.5 0  -0.4300000000001942 0.5 0  -0.4200000000002219 0.5 0  -0.4100000000002497 0.5 0  -0.4000000000002774 0.5 0  -0.3900000000003052 0.5 0  -0.3800000000003328 0.5 0  -0.3700000000003606 0.5 0  -0.3600000000003883 0.5 0  -0.3500000000004161 0.5 0  -0.3400000000004438 0.5 0  -0.3300000000004716 0.5 0  -0.3200000000004993 0.5 0  -0.3100000000005271 0.5 0  -0.3000000000005548 0.5 0  -0.2900000000005825 0.5 0  -0.2800000000006103 0.5 0  -0.2700000000006381 0.5 0  -0.2600000000006658 0.5 0  -0.2500000000006935 0.5 0  -0.2400000000007212 0.5 0  -0.230000000000749 0.5 0  -0.2200000000007767 0.5 0  -0.2100000000008044 0.5 0  -0.2000000000008322 0.5 0  -0.19000000000086 0.5 0  -0.1800000000008877 0.5 0  -0.1700000000009154 0.5 0  -0.1600000000009431 0.5 0  -0.1500000000009709 0.5 0  -0.1400000000009986 0.5 0  -0.1300000000010264 0.5 0  -0.1200000000010541 0.5 0  -0.1100000000010818 0.5 0  -0.1000000000011096 0.5 0  -0.09000000000113734 0.5 0  -0.08000000000116503 0.5 0  -0.07000000000119283 0.5 0  -0.06000000000122058 0.5 0  -0.05000000000124827 0.5 0  -0.04000000000127607 0.5 0  -0.03000000000130376 0.5 0  -0.02000000000133151 0.5 0  -0.01000000000135925 0.5 0  -1.376121439022882e-12 0.5 0  0.009999999998640763 0.5 0  0.01999999999866864 0.5 0  0.02999999999869629 0.5 0  0.03999999999872406 0.5 0  0.04999999999875182 0.5 0  0.05999999999877947 0.5 0  0.06999999999880724 0.5 0  0.079999999998835 0.5 0  0.08999999999886266 0.5 0  0.09999999999889042 0.5 0  0.1099999999989182 0.5 0  0.1199999999989459 0.5 0  0.1299999999989737 0.5 0  0.1399999999990014 0.5 0  0.1499999999990291 0.5 0  0.1599999999990568 0.5 0  0.1699999999990847 0.5 0  0.1799999999991124 0.5 0  0.1899999999991401 0.5 0  0.1999999999991678 0.5 0  0.2099999999991955 0.5 0  0.2199999999992234 0.5 0  0.2299999999992511 0.5 0  0.2399999999992788 0.5 0  0.2499999999993066 0.5 0  0.2599999999993342 0.5 0  0.269999999999362 0.5 0  0.2799999999993897 0.5 0  0.2899999999994175 0.5 0  0.2999999999994452 0.5 0  0.3099999999994729 0.5 0  0.3199999999995007 0.5 0  0.3299999999995284 0.5 0  0.3399999999995562 0.5 0  0.3499999999995839 0.5 0  0.3599999999996116 0.5 0  0.3699999999996393 0.5 0  0.379999999999667 0.5 0  0.3899999999996949 0.5 0  0.3999999999997226 0.5 0  0.4099999999997503 0.5 0  0.419999999999778 0.5 0  0.4299999999998058 0.5 0  0.4399999999998336 0.5 0  0.4499999999998613 0.5 0  0.4599999999998891 0.5 0  0.4699999999999167 0.5 0  0.4799999999999445 0.5 0  0.4899999999999722 0.5 0  0.5 0.4900000000000277 0  0.5 0.4800000000000555 0  0.5 0.4700000000000832 0  0.5 0.4600000000001109 0  0.5 0.4500000000001387 0  0.5 0.4400000000001664 0  0.5 0.4300000000001942 0  0.5 0.4200000000002219 0  0.5 0.4100000000002497 0  0.5 0.4000000000002774 0  0.5 0.3900000000003052 0  0.5 0.3800000000003328 0  0.5 0.3700000000003606 0  0.5 0.3600000000003883 0  0.5 0.3500000000004161 0  0.5 0.3400000000004438 0  0.5 0.3300000000004716 0  0.5 0.3200000000004993 0  0.5 0.3100000000005271 0  0.5 0.3000000000005548 0  0.5 0.2900000000005825 0  0.5 0.2800000000006103 0  0.5 0.2700000000006381 0  0.5 0.2600000000006658 0  0.5 0.2500000000006935 0  0.5 0.2400000000007212 0  0.5 0.230000000000749 0  0.5 0.2200000000007767 0  0.5 0.2100000000008044 0  0.5 0.2000000000008322 0  0.5 0.19000000000086 0  0.5 0.1800000000008877 0  0.5 0.1700000000009154 0  0.5 0.1600000000009431 0  0.5 0.1500000000009709 0  0.5 0.1400000000009986 0  0.5 0.1300000000010264 0  0.5 0.1200000000010541 0  0.5 0.1100000000010818 0  0.5 0.1000000000011096 0  0.5 0.09000000000113734 0  0.5 0.08000000000116503 0  0.5 0.07000000000119283 0  0.5 0.06000000000122058 0  0.5 0.05000000000124827 0  0.5 0.04000000000127607 0  0.5 0.03000000000130376 0  0.5 0.02000000000133151 0  0.5 0.01000000000135925 0  0.5 1.376121439022882e-12 0  0.5 -0.009999999998640763 0  0.5 -0.01999999999866864 0  0.5 -0.02999999999869629 0  0.5 -0.03999999999872406 0  0.5 -0.04999999999875182 0  0.5 -0.05999999999877947 0  0.5 -0.06999999999880724 0  0.5 -0.079999999998835 0  0.5 -0.08999999999886266 0  0.5 -0.09999999999889042 0  0.5 -0.1099999999989182 0  0.5 -0.1199999999989459 0  0.5 -0.1299999999989737 0  0.5 -0.1399999999990014 0  0.5 -0.1499999999990291 0  0.5 -0.1599999999990568 0  0.5 -0.1699999999990847 0  0.5 -0.1799999999991124 0  0.5 -0.1899999999991401 0  0.5 -0.1999999999991678 0  0.5 -0.2099999999991955 0  0.5 -0.2199999999992234 0  0.5 -0.2299999999992511 0  0.5 -0.2399999999992788 0  0.5 -0.2499999999993066 0  0.5 -0.2599999999993342 0  0.5 -0.269999999999362 0  0.5 -0.2799999999993897 0  0.5 -0.2899999999994175 0  0.5 -0.2999999999994452 0  0.5 -0.3099999999994729 0  0.5 -0.3199999999995007 0  0.5 -0.3299999999995284 0  0.5 -0.3399999999995562 0  0.5 -0.3499999999995839 0  0.5 -0.3599999999996116 0  0.5 -0.3699999999996393 0  0.5 -0.379999999999667 0  0.5 -0.3899999999996949 0  0.5 -0.3999999999997226 0  0.5 -0.4099999999997503 0  0.5 -0.419999999999778 0  0.5 -0.4299999999998058 0  0.5 -0.4399999999998336 0  0.5 -0.4499999999998613 0  0.5 -0.4599999999998891 0  0.5 -0.4699999999999167 0  0.5 -0.4799999999999445 0  0.5 -0.4899999999999722 0  0.4900000000000277 -0.5 0  0.4800000000000555 -0.5 0  0.4700000000000832 -0.5 0  0.4600000000001109 -0.5 0  0.4500000000001387 -0.5 0  0.4400000000001664 -0.5 0  0.4300000000001942 -0.5 0  0.4200000000002219 -0.5 0  0.4100000000002497 -0.5 0  0.4000000000002774 -0.5 0  0.3900000000003052 -0.5 0  0.3800000000003328 -0.5 0  0.3700000000003606 -0.5 0  0.3600000000003883 -0.5 0  0.3500000000004161 -0.5 0  0.3400000000004438 -0.5 0  0.3300000000004716 -0.5 0  0.3200000000004993 -0.5 0  0.3100000000005271 -0.5 0  0.3000000000005548 -0.5 0  0.2900000000005825 -0.5 0  0.2800000000006103 -0.5 0  0.2700000000006381 -0.5 0  0.2600000000006658 -0.5 0  0.2500000000006935 -0.5 0  0.2400000000007212 -0.5 0  0.230000000000749 -0.5 0  0.2200000000007767 -0.5 0  0.2100000000008044 -0.5 0  0.2000000000008322 -0.5 0  0.19000000000086 -0.5 0  0.1800000000008877 -0.5 0  0.1700000000009154 -0.5 0  0.1600000000009431 -0.5 0  0.1500000000009709 -0.5 0  0.1400000000009986 -0.5 0  0.1300000000010264 -0.5 0  0.1200000000010541 -0.5 0  0.1100000000010818 -0.5 0  0.1000000000011096 -0.5 0  0.09000000000113734 -0.5 0  0.08000000000116503 -0.5 0  0.07000000000119283 -0.5 0  0.06000000000122058 -0.5 0  0.05000000000124827 -0.5 0  0.04000000000127607 -0.5 0  0.03000000000130376 -0.5 0  0.02000000000133151 -0.5 0  0.01000000000135925 -0.5 0  1.376121439022882e-12 -0.5 0  -0.009999999998640763 -0.5 0  -0.01999999999866864 -0.5 0  -0.02999999999869629 -0.5 0  -0.03999999999872406 -0.5 0  -0.04999999999875182 -0.5 0  -0.05999999999877947 -0.5 0  -0.06999999999880724 -0.5 0  -0.079999999998835 -0.5 0  -0.08999999999886266 -0.5 0  -0.09999999999889042 -0.5 0  -0.1099999999989182 -0.5 0  -0.1199999999989459 -0.5 0  -0.1299999999989737 -0.5 0  -0.1399999999990014 -0.5 0  -0.1499999999990291 -0.5 0  -0.1599999999990568 -0.5 0  -0.1699999999990847 -0.5 0  -0.1799999999991124 -0.5 0  -0.1899999999991401 -0.5 0  -0.1999999999991678 -0.5 0  -0.2099999999991955 -0.5 0  -0.2199999999992234 -0.5 0  -0.2299999999992511 -0.5 0  -0.2399999999992788 -0.5 0  -0.2499999999993066 -0.5 0  -0.2599999999993342 -0.5 0  -0.269999999999362 -0.5 0  -0.2799999999993897 -0.5 0  -0.2899999999994175 -0.5 0  -0.2999999999994452 -0.5 0  -0.3099999999994729 -0.5 0  -0.3199999999995007 -0.5 0  -0.3299999999995284 -0.5 0  -0.3399999999995562 -0.5 0  -0.3499999999995839 -0.5 0  -0.3599999999996116 -0.5 0  -0.3699999999996393 -0.5 0  -0.379999999999667 -0.5 0  -0.3899999999996949 -0.5 0  -0.3999999999997226 -0.5 0  -0.4099999999997503 -0.5 0  -0.419999999999778 -0.5 0  -0.4299999999998058 -0.5 0  -0.4399999999998336 -0.5 0  -0.4499999999998613 -0.5 0  -0.4599999999998891 -0.5 0  -0.4699999999999167 -0.5 0  -0.4799999999999445 -0.5 0  -0.4899999999999722 -0.5 0  -0.5 -0.4900000000000277 0  -0.5 -0.4800000000000555 0  -0.5 -0.4700000000000832 0  -0.5 -0.4600000000001109 0  -0.5 -0.4500000000001387 0  -0.5 -0.4400000000001664 0  -0.5 -0.4300000000001942 0  -0.5 -0.4200000000002219 0  -0.5 -0.4100000000002497 0  -0.5 -0.4000000000002774 0  -0.5 -0.3900000000003052 0  -0.5 -0.3800000000003328 0  -0.5 -0.3700000000003606 0  -0.5 -0.3600000000003883 0  -0.5 -0.3500000000004161 0  -0.5 -0.3400000000004438 0  -0.5 -0.3300000000004716 0  -0.5 -0.3200000000004993 0  -0.5 -0.3100000000005271 0  -0.5 -0.3000000000005548 0  -0.5 -0.2900000000005825 0  -0.5 -0.2800000000006103 0  -0.5 -0.2700000000006381 0  -0.5 -0.2600000000006658 0  -0.5 -0.2500000000006935 0  -0.5 -0.2400000000007212 0  -0.5 -0.230000000000749 0  -0.5 -0.2200000000007767 0  -0.5 -0.2100000000008044 0  -0.5 -0.2000000000008322 0  -0.5 -0.19000000000086 0  -0.5 -0.1800000000008877 0  -0.5 -0.1700000000009154 0  -0.5 -0.1600000000009431 0  -0.5 -0.1500000000009709 0  -0.5 -0.1400000000009986 0  -0.5 -0.1300000000010264 0  -0.5 -0.1200000000010541 0  -0.5 -0.1100000000010818 0  -0.5 -0.1000000000011096 0  -0.5 -0.09000000000113734 0  -0.5 -0.08000000000116503 0  -0.5 -0.07000000000119283 0  -0.5 -0.06000000000122058 0  -0.5 -0.05000000000124827 0  -0.5 -0.04000000000127607 0  -0.5 -0.03000000000130376 0  -0.5 -0.02000000000133151 0  -0.5 -0.01000000000135925 0  -0.5 -1.376121439022882e-12 0  -0.5 0.009999999998640763 0  -0.5 0.01999999999866864 0  -0.5 0.02999999999869629 0  -0.5 0.03999999999872406 0  -0.5 0.04999999999875182 0  -0.5 0.05999999999877947 0  -0.5 0.06999999999880724 0  -0.5 0.079999999998835 0  -0.5 0.08999999999886266 0  -0.5 0.09999999999889042
[...]
<PointData  Scalars="f_58-1"> 
<DataArray  type="Float64"  Name="f_58-1"  format="ascii">3.1515412234507711e-02  -4.3302576832448111e-03  -2.7290851760317619e-02  2.3382111231613361e-02  -5.1746158498486598e-03  6.8078776984343933e-02  7.1557053293974868e-03  -9.1344810181114428e-03  3.2593765522751193e-02  -1.5785427308385197e-02  2.2750944799163959e-02  2.7595571134144469e-02  2.9569985415416181e-02  8.5455411602694847e-02  1.3705374072804824e-02  9.5493862934431066e-03  3.3285771392284828e-02  1.8762286745120670e-02  9.6455850188016043e-03  7.0798600337008202e-03  -8.6631908406314892e-03  1.1129374558498956e-02  2.3418111984356359e-02  3.6273713162329919e-03  6.4937260429097417e-03  -2.6344651878034998e-04  2.0313319142408817e-03  -3.2684173494251789e-05  -2.7962537560539506e-03  -6.3062911902965835e-03  -3.0183884963974339e-03  -7.8863773889319387e-03  -8.8846807112284917e-03  -6.9449645253300924e-03  -7.6150836059719054e-03  -8.3582167739816530e-03  -1.5048049719249435e-02  -1.0396305460527302e-02  -2.0590441660228595e-02  -2.0175650715221091e-02  -1.6754188751698873e-02  -1.1593035917006098e-02  -2.5928172760085605e-02  -1.0655542725941110e-02  -2.1168636256951794e-02  -1.1428895802933506e-02  -2.3353522227940300e-02  -1.2094141667238415e-02  -2.4999807786366696e-02  -1.0829710193662164e-02  -1.2545661889628320e-02  -1.2569088066481025e-02  -2.7804571990774966e-02  -1.0101036446003159e-02  -1.0150537309116487e-02  -2.1275299222752283e-02  -1.3308057316825567e-02  -1.1723472579485259e-02  -1.0744518807900146e-02  -1.0907188529767397e-02  -1.4888414419374250e-02  -3.2904113534050192e-02  -1.6995298746303469e-02  -2.9745070121935044e-02  -1.4491907991412116e-02  -1.3714101592780088e-02  -1.0264675597812073e-02  -4.2065126073886815e-02  -2.3243609199292036e-02  -6.3517931699221576e-03  2.2378052694891609e-03  2.1074131908175595e-03  -3.8873051607597152e-02  -1.2544495548548583e-02  -3.0280893216750468e-02  -8.9055800390322702e-03  -1.7930510235568051e-02  -2.1712561211385463e-02  -5.2636047354945689e-02  -1.2799501473835167e-02  -1.1109478630894367e-02  -1.0634196361970914e-02  -2.9721853470033723e-02  -7.8798140112354975e-03  -1.5478070317838830e-03  -1.0546229487273587e-02  -2.6511229380789807e-02  -2.5787714317599478e-02  -6.5957442097650566e-03  -2.8330293678935407e-02  -2.8872318745359116e-02  -5.0408051499344214e-03  7.7177357841148398e-03  -2.9309370837604185e-02  -1.6009269187542086e-02  6.3795343019795135e-03  1.2721638571531141e-02  -4.4492955163558728e-03  -4.2241803314249952e-03  -6.8426051267866470e-03  -7.1972169863248961e-03  -5.8783292392902368e-03  -8.2039836826946592e-03  -3.2660559962689698e-02  -3.5986106734538139e-03  -1.2797075575283718e-02  -4.5791286338852447e-03  -1.0663753332555865e-02  1.2093813887188033e-02  -2.9689286839842823e-02  -1.0151646602069471e-03  1.9270271015319262e-02  -6.8123300521404119e-03  -4.2879740556213047e-02  -2.7464094390638495e-03  -8.0812176994100537e-02  2.7413307727794857e-02  2.4962127064065049e-02  -8.0597675811787221e-03  -5.4919311759164501e-02  -3.6372648761237365e-02  1.2643695479928399e-03  1.1172069876274076e-02  -3.7191329900672601e-02  -3.9927560296891429e-02  -1.5436076414593367e-02  -3.7059143012404462e-02  -3.5768346294358239e-03  -7.3536612733764890e-03  -4.0006394972727597e-03  -3.4824860013631220e-02  -1.6426751417590035e-02  -3.8125156187928777e-02  -2.2242995809947697e-02  -2.3618036516725279e-02  -2.2125578377979342e-02  1.7235145874815554e-02  -1.1843772032158743e-02  1.7754118013954344e-02  -1.1279836352479346e-02  -2.2545939107964916e-02  -2.0990336825821687e-02  -7.4161570561035823e-03  -3.8273612931584780e-02  -3.0289246507794243e-02  -3.2569132663354594e-02  -8.6868713889203305e-03  -1.8073078336831770e-02  -5.8587940570707847e-02  -2.6760694015163001e-02  -3.6398586553909942e-02  -2.6788598989765787e-02  -2.6550009912946107e-02  -2.4897872244423962e-02  -2.5015054617252508e-02  -3.6330318095040654e-03  -3.0318484828542224e-02  -1.9909504211649224e-02  -1.9334954049016827e-02  1.4216221749183359e-02  -1.3982034402974818e-02  -3.4926270240844944e-02  -1.3651108217416663e-02  -2.8180794306892073e-02  -2.3868829669324444e-02  -2.3457603645944854e-02  -2.4025644132719751e-02  -2.6519923372600035e-02  -3.3034324106433470e-02  -3.3436829410903979e-02  -5.5918069892789635e-02  -4.2674063426712842e-03  -4.2314705411071836e-03  -2.3715233992519243e-02  -2.5627840537910580e-02  -1.8523133019463893e-02  -3.0684059144000863e-02  -3.1061785066467337e-02  -2.3868554870437653e-02  -3.4865175077948916e-02  -3.4604602753535094e-02  -2.3009389125447633e-02  -3.0869760319034364e-02  -3.0905198668683284e-02  -2.3628975050316976e-02  -3.2641549139246981e-02  -2.6149028574354222e-02  -3.2579407657969406e-02  -2.9040988912798618e-02  -2.8941961872335928e-02  -2.8114592234948551e-02  -3.3158884745362362e-02  -3.3131755481919274e-02  -3.3148331172760170e-02  4.0313475505625238e-03  3.8863153641278785e-03  -6.5002570078215305e-03  -6.6477669275440427e-03  3.5245143037781861e-04  -1.8359850654522940e-02  -2.5236003950455430e-02  -2.5072447359607390e-02  -2.4880489716416609e-02  -3.8731395071852507e-03  -2.4282337256631287e-02  -3.1613393166228465e-02  -2.5425183869480790e-02  -3.6714854227855595e-03  -3.1423133559255315e-02  -2.3814185997441832e-02  -2.3814108717642519e-02  -2.3692233544135619e-02  3.8649787424622664e-03  -2.5243510616726292e-02  -3.2095336474666877e-02  -2.3907601841850541e-02  -2.9692054798709171e-02  3.4650563086665795e-03  -2.4526576510116048e-02  -3.6542452624097862e-03  1.0008062734253587e-02  -1.1654918193029499e-02  -2.2442606766332321e-02  -5.3243292626069067e-03  -8.3448141075744033e-03  -2.1726887265051592e-02  -2.2194425398722843e-02  -1.7570993830595710e-02  3.4929317988859070e-03  -3.0775688515006706e-02  -3.1763541880290951e-02  -3.1959488041532640e-02  -3.2474765925273888e-02  -2.2852112976223235e-02  -2.9265578266291808e-02  -3.3132877752622167e-03  1.7103517426281217e-02  1.7267513553797159e-02  1.7701959749866852e-02  1.7350931887471801e-02  -1.5920423667377902e-02  -4.7797098469726605e-03  -4.2269845128331462e-03  2.2292824780570835e-03  1.7070326363048987e-02  -4.6366061960976656e-03  -1.6183118809162116e-02  -5.8086248548544763e-03  -1.0246250830493129e-02  -1.6954034827239908e-02  2.2800613499972151e-03  2.1775582890265093e-03  -5.3561782833562270e-03  -2.4763017525912005e-03  -1.6033867000879491e-02  1.4021409419564502e-02  -4.2202312303940255e-03  -9.0858043996846563e-03  1.2307944694626857e-02  1.2691154067240897e-02  1.2381611591372757e-02  -3.0287106098888837e-03  -1.5942642500540872e-03  -1.3488554582344724e-02  -1.3067344944153438e-02  1.2952679777973930e-02  1.3530135440189169e-02  1.3262690215019426e-02  1.9133570794427198e-03  2.0410547007345551e-03  -5.7245277365530166e-03  -5.5347706445167781e-03  -5.7332587670726604e-03  -2.0404955229194207e-03  -2.1975014921488622e-04  -3.0516825175640264e-02  -4.9846682904694899e-03  -1.9890515762107090e-02  4.9314507907824044e-03  1.5489260555487305e-02  1.6311240989399005e-02  -7.0774021490499651e-03  1.6069739374185612e-03  -7.8696950768838564e-03  1.0673174015692326e-04  5.5862454725826103e-03  2.1157165349667750e-03  -2.1908312526080831e-02  5.7568722124311375e-03  4.9469028553887802e-03  -1.6938884372628527e-02  6.6857997495310979e-03  -1.9585583482071185e-02  7.0875058720675389e-04  3.6861295028853714e-04  -6.7373456355311941e-03  -6.9656417763822708e-03  -1.5741286165255601e-02  2.5292717034819202e-02  -1.1703882789144854e-02  -5.4337046552649010e-02  -5.5350577679885563e-02  -1.0705293818267791e-02  -5.0899614413486560e-03  -1.1495194807820465e-02  -3.7613405262302710e-02  -7.1518883702646904e-02  2.7271655407470084e-02  -4.3757351754903473e-02  -4.2896104703383266e-02  -6.2563440602617162e-02  -4.8783425730968104e-02  -4.1251281324532180e-02  2.0788398925357991e-02  -4.0159374700839384e-02  -3.7712077366323885e-02  -3.9294619691264507e-02  2.4395424102286529e-02  -4.2580155054539853e-02  -4.1092412188970910e-02  2.3356375439266309e-02  -3.9653291673722203e-02  -5.6884463220812628e-02  -1.8657925452147575e-02  -6.9987224119510624e-02  3.5046035861320497e-02  -3.9304966704067676e-02  -5.0639725139162539e-02  -5.1028303740407274e-02  -3.0117321912221162e-02  -4.9043158762661548e-02  -3.6131313565555670e-02  -3.7158461981391347e-02  3.0254436913180346e-02  1.0378298910232502e-02  1.4886100490778948e-02  -7.4923134548881110e-02  -6.5120986170677478e-02  6.7484300643263134e-02  -2.2703742142671991e-02  -7.5244315385267990e-01  -6.2295575924755575e-01  1.2158589688419118e-02  -5.2214012119437200e-02  -4.4891098946955366e-01  -7.3942808079268986e-03  -4.2979661766162125e-01  -2.1751910016446241e-01  5.4499829522291370e-02  5.0525302705870259e-02  -3.2880171389489100e-02  -1.1803186470672988e-01  -8.1488379387493464e-03  -1.9157093030490867e-02  -7.9741342841918722e-03  -7.3066374929837506e-03  -5.9675295854074075e-03  -1.4912865826323332e-02  -7.1065546826692668e-03  -8.6841820229411476e-03  -9.0175244336136995e-03  -1.1804768467153596e-02  -8.8306642331376448e-03  -9.6702773675091443e-03  -8.6029499058612909e-03  -2.1999364049952726e-02  -1.0679403301651177e-02  -4.6145171410534105e-03  -4.8289608535742080e-03  -6.6334269812124910e-03  -6.6277394448689721e-03  -9.0915850251070737e-03  -6.5481972361828124e-03  -4.8596872206775298e-03  -9.4650682863384582e-03  -4.0031955028119286e-03  -7.6757689701806592e-03  -2.7733339803748501e-03  -2.9466488838427174e-03  -6.9352850153195202e-03  -3.5265311910828712e-03  -5.7163792374402504e-03  -6.7677246339389180e-04  -9.0066707091347384e-04  6.0461149678717810e-03  1.4554530064359767e-02  7.0519668222080167e-01  6.1476909809200897e-01  3.7550770162339264e-03  4.6219314092570615e-03  1.0131706033756696e-03  1.7752384190648377e-03  5.0503932624755780e-03  2.2286687632143230e-03  8.4179211824205805e-02  8.8355096349517964e-02  1.2938839051427214e-01  -5.3351936231793694e-03  1.4870668259724718e-02  -1.2659771114158683e-02  2.8391190371672041e-02  2.6297286869799527e-02  2.6422530472903674e-02  -2.1695688805224114e-02  -1.7409845568324782e-03  -2.0530654153227326e-03  -1.2719727017154493e-03  -8.2958978770501486e-04  -2.9298751505426690e-04  -4.6183918804262305e-04  7.6256415371871323e-03  -1.3011098399909959e-01  1.9464971696529471e-01  -1.8201236632439846e-02  -7.7585062519686856e-03  -6.3058159072530956e-02  -1.3499061279139208e-02  -1.8743012591810521e-02  -5.8738471044854718e-02  -5.2622965127121460e-02  -4.9121086304045276e-02  1.9642132140462792e-03  -3.2656943558844999e-02  -3.8830522723945883e-03  -2.5688193340641131e-02  -1.4601775168036128e-02  -1.8766652740012054e-03  -2.0747635506147355e-03  -1.0204749637962232e-02  -7.8163993632275695e-03  -7.7727745809827191e-03  -9.2937552858661492e-03  -1.9504908767381649e-02  -3.0676020738946565e-02  -3.3614093001507424e-02  -3.9652884455632503e-02  -3.8307736863136418e-02  -8.0961659383533627e-03  3.1865472475668226e-03  -4.1156801673546219e-02  -6.6879895895853459e-03  7.8388844182150936e-03  1.9374080568508468e-03  -1.7354093192443014e-02  3.2899839660028365e-03  -4.9343348514392441e-03  2.8745773702938994e-03  -8.9059529676850900e-03  -9.9905610299222854e-03  3.1392978013442631e-02  -4.5136757966785877e-03  -1.4076758225440038e-02  -2.6807764142638722e-02  -6.2544930221224121e-02  -1.2288254114084692e-01  -9.8949622904634507e-02  -3.6753996502876085e-01  -5.2312116214057684e-03  -7.0087213026226759e-03  -6.4725497810630079e-03  1.6551453249279656e-03  -1.0905220691509621e-02  7.0339850139881932e-04  -2.1088805803039642e-03  -2.0958408990716978e-02  -1.0503897508244408e-02  7.5761980242148363e-02  -1.4616383593291338e-01  -1.9447821554142153e-02  -7.2832516715471921e-03  -1.9102853862369047e-03  2.5966049926854884e-01  -1.4103029178067117e-03  6.5878909588965116e-04  -6.9835922137943558e-04  8.3784490846177881e-05  -4.4319015735644167e-04  4.0606299316729710e-05  1.2166387012300363e-02  -9.4595656132139797e-04  -2.0153932473989652e-02  -1.7963841497660300e-02  -1.0724465356014758e-03  -2.8275349223441434e-03  -7.3702062620701015e-03  -1.4007603423380109e-02  -1.7598810551200765e-03  -2.1892168588203031e-02  -6.8413457460491239e-03  5.5036936630894040e-02  -1.2183806071727858e-03  -2.2597824612725827e-04  -3.3878588085689942e-02  7.6341404268199554e-04  3.9641592283497732e-03  -1.3450088884590008e-03  -1.1129433442272862e-02  -3.1524332614787848e-02  -6.1651945046908713e-03  -2.6783176593753594e-02  -1.3073096553784764e-02  -2.2241964211827794e-02  -9.7991012779274043e-04  6.3280535154065440e-03  1.6719702628094982e-03  -1.3598325109250175e-02  7.7684226860960139e-04  -2.3373005182449388e-03  -3.4616506032814368e-02  -2.9313478490001679e-02  9.2673163454197590e-04  4.9948370752239818e-03  -9.4066199927843083e-02  7.7944991526854163e-03  -9.1932025401554492e-03  -1.0112345224811803e-02  -3.2034685560416915e-02  -1.2817384101657765e-02  -3.3201040182004871e-02  -4.4048886451825246e-03  6.4189314180634754e-03  -3.1041131556819525e-03  -1.5350641657841451e-02  4.0921116826741315e-03  -1.9913177734183990e-03  1.1557170980704178e-02  -3.1225366290344010e-02  -1.5733505878921014e-02  -1.5930282304344838e-02  2.7787919796648753e-03  -2.1362056316676328e-02  -2.0635126002769684e-02  1.1761792467610498e-03  -4.6045167673917115e-02  -4.5047319185179499e-02  -2.4349914251409355e-02  -2.1484419726886993e-02  4.1147189302286058e-03  4.5600519487210348e-03  -2.8173013734826939e-02  4.1290425822304994e-03  -1.9813645394259347e-03  5.8579749772465365e-03  -1.0653010866141004e-02  8.3379436101735068e-04  4.2337842441594895e-03  -3.6245420541898268e-03  -5.9021378954923053e-03  -4.9107829519133587e-03  3.5195017240221421e-05  2.5717421384498992e-03  1.3028890528637828e-03  -5.9400754374740704e-03  -1.3639418419049906e-02  4.4175774127282325e-03  -3.6858719848972422e-03  3.6908945769846225e-03  2.9164519788978084e-02  4.6773176633135433e-03  -2.8650187708951520e-02  -1.2179933877873505e-02  -4.7257414317346145e-03  -3.5613802413587648e-03  -5.3495274329179538e-03  -1.2696228787736168e-02  -3.6389778993339922e-02  -7.0449803365060688e-03  -2.1642341379578146e-03  2.3900496876215699e-04  1.0277902340928209e-02  -9.2301662654840536e-02  -2.9572699732454577e-02  -9.7629672980117863e-03  -2.8968920994694329e-02  -1.7407046047686166e-02  -6.6809747738300488e-03  9.6481904164079542e-03  -2.0404451327213802e-02  2.3760542061943748e-03  4.0303521495190474e-03  3.4882613745012558e-03  -2.2785997266171594e-02  1.3386985160349172e-02  -7.8252156856090781e-03  -9.5340678500319860e-03  -2.1824464465094993e-03  -6.5390140752678563e-03  1.3444277048945685e-03  -7.6299749064481417e-03  1.7490725339662470e-03  -1.0624663141442043e-02  1.3665690089727848e-02  -7.6015893371186331e-03  4.9005866134210069e-03  -1.4242487749785511e-02  3.1737337146713505e-03  1.9456312662108430e-04  8.8451331817675574e-04  -1.9159281714525460e-02  1.1246372453360201e-03  -1.1151481871540907e-02  1.1816860524384340e-02  -5.5397343239917025e-03  1.3555932343348532e-03  -9.5931509833138326e-04  3.8958028052877153e-03  -2.4033885693875330e-03  -1.4053094027112197e-02  4.1862539261966411e-03  2.9469265463224897e-03  3.2478271937475975e-02  -2.3024428943134279e-02  -1.2020276882281014e-02  -2.4162098828953399e-02  2.2185660986157145e-03  -5.2565584242513091e-03  -2.0928529822149232e-02  -1.2243382901763075e-02  -2.3170890995451356e-02  -6.0838620330461975e-03  8.6408555217381200e-04  7.6881856355045493e-03  -5.2208048048381240e-03  -4.4282563017604762e-02  1.5041345873737951e-02  -1.3615696810786546e-02  -9.5235407459999533e-04  -2.1832586710936533e-02  -2.3901066402368899e-03  1.5960589276229620e-03  1.2527791909040450e-04  -3.3700795234030759e-02  1.8129254337198818e-02  -9.1642354218859565e-04  -8.4678047033513032e-04  -8.6305468257255914e-03  -7.7794097961942049e-04  3.6472906645628120e-03  7.6564445450673368e-03  -1.5276623666021222e-02  -3.3423504190679097e-02  -7.1705165488415920e-03  -1.3302680770183810e-02  -2.2914419906224254e-02  -7.9845009855739925e-04  6.6650854063472651e-03  -3.2278886268298487e-02  -2.4808728097969433e-02  8.7971652341045301e-03  -7.1141031344049734e-03  -1.1445054347694258e-02  -2.1006701565403463e-02  -2.6524027981595635e-03  4.5705140458067589e-03  -3.7842405038993859e-02  -1.8630487116307465e-03  -6.7768795826704635e-03  -4.0545891380575402e-03  -9.6957706084786809e-04  -1.1533019797363911e-02  -1.9259663180550453e-03  5.8936238904300775e-03  2.9724677022719822e-03  -3.0314523824588482e-04  2.7273005750556439e-03  -5.9788353958508858e-02  -1.8304866966658877e-02  -3.1647370490770132e-03  -2.1759942108624045e-02  -2.7574350717656130e-02  -1.3945025224938850e-02  2.2327508264349866e-01  2.9828061148136353e-04  3.3517829675196037e-03  5.2982678999849517e-04  -8.0301939535779064e-04  -1.7464061365094340e-02  -1.6661717133327186e-02  -3.0281679519304806e-03  -4.1986574290262283e-03  -1.4339561961034397e-02  1.0355214039722331e-02  -1.9727873925660316e-02  -3.2886038801112462e-03  -2.6794769218365374e-02  -6.9538446300474489e-03  1.0052477808255834e-02  3.3440578012651143e-04  3.0245592664958085e-03  1.0646589605988677e-02  -8.4125988945497453e-04  -4.6903752507172651e-02  -6.9920671349296779e-03  -2.1210169304696699e-02  -3.0147027457121875e-02  -2.2184505452420927e-02  2.0534481667825958e-03  1.6994657089361431e-05  -4.1143923390586801e-03  -2.3491008736853668e-04  8.5368207570984383e-03  6.2619240222194957e-04  -3.7978668716568938e-03  -1.1603048755042061e-02  -2.8451743120134782e-04  -2.1459758731023459e-02  -1.2715401732927085e-02  -2.9522073893992308e-03  -2.7485967007850807e-02  1.3610874064122896e-03  1.4589601984018371e-03  4.9518721204253047e-03  5.3434967699008615e-03  -1.3952877737373040e-02  -4.1801221982223436e-04  -3.0059333087201498e-03  3.9119694741890018e-03  5.0388338004286881e-03  6.5987093630552841e-03  -2.3166482383215399e-02  -4.3977393411942352e-02  -3.3738160432752150e-03  -8.5608307064168076e-05  -1.9298035576865880e-02  -5.1721126070286179e-03  -1.9324451447826966e-02  -2.9561625431654658e-02  -5.0242988425375223e-04  8.5348197114246370e-03  -5.0541615333253478e-02  -6.0139536587170653e-02  5.1949158857917625e-03  6.6503900898927659e-03  -1.3620760626715005e-02  -3.1912492620881916e-02  -9.0489509568713183e-03  2.7175030222151703e-03  4.8194505864629110e-02  -6.2807789936433368e-03  -9.9392129576657759e-03  -2.1475666901178112e-02  -2.8254943343779719e-03  -1.8892726069115431e-02  -2.1968435237815730e-02  5.9773574291883957e-05  -1.7502327632610778e-02  -2.7446597410450517e-06  3.2439627618959278e-03  -5.0174476013740317e-03  -1.7654751829351566e-02  -9.5542130890868618e-03  -1.5025340418925878e-02  1.1784564864607256e-02  -3.1794603609134151e-02  -3.2928857048947900e-02  -1.8519490121418885e-02  -2.4640371456851620e-02  -1.4925465991396780e-02  4.9314669877629936e-03  -4.2522705276919256e-03  -3.1995498851904780e-02  3.1717663525343701e-03  -9.3262410703588532e-03  1.4848852787759492e-02  -2.1480870328161240e-02  1.0869469138570360e-01  8.0459157716739893e-03  -2.7000356332948800e-02  -9.4710320742036249e-03  2.4506684345164237e-03  -2.8922771169565742e-03  -1.5045745244478940e-02  -1.6805750850074691e-03  -1.7869540411876567e-02  7.0924161030690575e-03  5.5053804140832510e-03  2.4646943171507431e-04  -2.3997061233922045e-02  1.1581516781193277e-04  -8.1713323730692178e-05  -9.4066182172204693e-05  -1.9797106630789440e-02  -4.7370662200159931e-03  -2.7583353304452898e-03  -1.1594295230445820e-02  -2.3062190812174997e-04  1.9013924202272645e-03  3.1426538314534833e-02  -3.2721083572301718e-02  -1.0311012046707431e-02  -6.8256983652280109e-03  -1.1494192757271766e-02  -3.4556712324663058e-03  -4.1813065362977060e-03  -9.9127547756050274e-03  5.7862703748911585e-03  -3.1930005631175949e-02  1.6244240168869530e-03  5.7410679538352771e-03  8.4144065002287292e-04  -9.6998753385954767e-04  6.8225702061707402e-03  1.7176727426413067e-02  1.4748869342286690e-02  1.4250781852478966e-02  -6.32192050668