<?xml version="1.0"?>
<VTKFile type="UnstructuredGrid"  version="0.1"  >
<UnstructuredGrid>
<Piece  NumberOfPoints="16275" NumberOfCells="32468">
<Points>
<DataArray  type="Float64"  NumberOfComponents="3"  format="ascii">-0.5 0.5 0  0.5 0.5 0  0.5 -0.5 0  -0.5 -0.5 0  -1 1 0  1 1 0  1 -1 0  -1 -1 0  -0.4900000000000277 0.5 0  -0.4800000000000555 0.5 0  -0.4700000000000832 0.5 0  -0.4600000000001109 0.5 0  -0.4500000000001387 0.5 0  -0.4400000000001664 0.5 0  -0.4300000000001942 0.5 0  -0.4200000000002219 0.5 0  -0.4100000000002497 0.5 0  -0.4000000000002774 0.5 0  -0.3900000000003052 0.5 0  -0.3800000000003328 0.5 0  -0.3700000000003606 0.5 0  -0.3600000000003883 0.5 0  -0.3500000000004161 0.5 0  -0.3400000000004438 0.5 0  -0.3300000000004716 0.5 0  -0.3200000000004993 0.5 0  -0.3100000000005271 0.5 0  -0.3000000000005548 0.5 0  -0.2900000000005825 0.5 0  -0.2800000000006103 0.5 0  -0.2700000000006381 0.5 0  -0.2600000000006658 0.5 0  -0.2500000000006935 0.5 0  -0.2400000000007212 0.5 0  -0.230000000000749 0.5 0  -0.2200000000007767 0.5 0  -0.2100000000008044 0.5 0  -0.2000000000008322 0.5 0  -0.19000000000086 0.5 0  -0.1800000000008877 0.5 0  -0.1700000000009154 0.5 0  -0.1600000000009431 0.5 0  -0.1500000000009709 0.5 0  -0.1400000000009986 0.5 0  -0.1300000000010264 0.5 0  -0.1200000000010541 0.5 0  -0.1100000000010818 0.5 0  -0.1000000000011096 0.5 0  -0.09000000000113734 0.5 0  -0.08000000000116503 0.5 0  -0.07000000000119283 0.5 0  -0.06000000000122058 0.5 0  -0.05000000000124827 0.5 0  -0.04000000000127607 0.5 0  -0.03000000000130376 0.5 0  -0.02000000000133151 0.5 0  -0.01000000000135925 0.5 0  -1.376121439022882e-12 0.5 0  0.009999999998640763 0.5 0  0.01999999999866864 0.5 0  0.02999999999869629 0.5 0  0.03999999999872406 0.5 0  0.04999999999875182 0.5 0  0.05999999999877947 0.5 0  0.06999999999880724 0.5 0  0.079999999998835 0.5 0  0.08999999999886266 0.5 0  0.09999999999889042 0.5 0  0.1099999999989182 0.5 0  0.1199999999989459 0.5 0  0.1299999999989737 0.5 0  0.1399999999990014 0.5 0  0.1499999999990291 0.5 0  0.1599999999990568 0.5 0  0.1699999999990847 0.5 0  0.1799999999991124 0.5 0  0.1899999999991401 0.5 0  0.1999999999991678 0.5 0  0.2099999999991955 0.5 0  0.2199999999992234 0.5 0  0.2299999999992511 0.5 0  0.2399999999992788 0.5 0  0.2499999999993066 0.5 0  0.2599999999993342 0.5 0  0.269999999999362 0.5 0  0.2799999999993897 0.5 0  0.2899999999994175 0.5 0  0.2999999999994452 0.5 0  0.3099999999994729 0.5 0  0.3199999999995007 0.5 0  0.3299999999995284 0.5 0  0.3399999999995562 0.5 0  0.3499999999995839 0.5 0  0.3599999999996116 0.5 0  0.3699999999996393 0.5 0  0.379999999999667 0.5 0  0.3899999999996949 0.5 0  0.3999999999997226 0.5 0  0.4099999999997503 0.5 0  0.419999999999778 0.5 0  0.4299999999998058 0.5 0  0.4399999999998336 0.5 0  0.4499999999998613 0.5 0  0.4599999999998891 0.5 0  0.4699999999999167 0.5 0  0.4799999999999445 0.5 0  0.4899999999999722 0.5 0  0.5 0.4900000000000277 0  0.5 0.4800000000000555 0  0.5 0.4700000000000832 0  0.5 0.4600000000001109 0  0.5 0.4500000000001387 0  0.5 0.4400000000001664 0  0.5 0.4300000000001942 0  0.5 0.4200000000002219 0  0.5 0.4100000000002497 0  0.5 0.4000000000002774 0  0.5 0.3900000000003052 0  0.5 0.3800000000003328 0  0.5 0.3700000000003606 0  0.5 0.3600000000003883 0  0.5 0.3500000000004161 0  0.5 0.3400000000004438 0  0.5 0.3300000000004716 0  0.5 0.3200000000004993 0  0.5 0.3100000000005271 0  0.5 0.3000000000005548 0  0.5 0.2900000000005825 0  0.5 0.2800000000006103 0  0.5 0.2700000000006381 0  0.5 0.2600000000006658 0  0.5 0.2500000000006935 0  0.5 0.2400000000007212 0  0.5 0.230000000000749 0  0.5 0.2200000000007767 0  0.5 0.2100000000008044 0  0.5 0.2000000000008322 0  0.5 0.19000000000086 0  0.5 0.1800000000008877 0  0.5 0.1700000000009154 0  0.5 0.1600000000009431 0  0.5 0.1500000000009709 0  0.5 0.1400000000009986 0  0.5 0.1300000000010264 0  0.5 0.1200000000010541 0  0.5 0.1100000000010818 0  0.5 0.1000000000011096 0  0.5 0.09000000000113734 0  0.5 0.08000000000116503 0  0.5 0.07000000000119283 0  0.5 0.06000000000122058 0  0.5 0.05000000000124827 0  0.5 0.04000000000127607 0  0.5 0.03000000000130376 0  0.5 0.02000000000133151 0  0.5 0.01000000000135925 0  0.5 1.376121439022882e-12 0  0.5 -0.009999999998640763 0  0.5 -0.01999999999866864 0  0.5 -0.02999999999869629 0  0.5 -0.03999999999872406 0  0.5 -0.04999999999875182 0  0.5 -0.05999999999877947 0  0.5 -0.06999999999880724 0  0.5 -0.079999999998835 0  0.5 -0.08999999999886266 0  0.5 -0.09999999999889042 0  0.5 -0.1099999999989182 0  0.5 -0.1199999999989459 0  0.5 -0.1299999999989737 0  0.5 -0.1399999999990014 0  0.5 -0.1499999999990291 0  0.5 -0.1599999999990568 0  0.5 -0.1699999999990847 0  0.5 -0.1799999999991124 0  0.5 -0.1899999999991401 0  0.5 -0.1999999999991678 0  0.5 -0.2099999999991955 0  0.5 -0.2199999999992234 0  0.5 -0.2299999999992511 0  0.5 -0.2399999999992788 0  0.5 -0.2499999999993066 0  0.5 -0.2599999999993342 0  0.5 -0.269999999999362 0  0.5 -0.2799999999993897 0  0.5 -0.2899999999994175 0  0.5 -0.2999999999994452 0  0.5 -0.3099999999994729 0  0.5 -0.3199999999995007 0  0.5 -0.3299999999995284 0  0.5 -0.3399999999995562 0  0.5 -0.3499999999995839 0  0.5 -0.3599999999996116 0  0.5 -0.3699999999996393 0  0.5 -0.379999999999667 0  0.5 -0.3899999999996949 0  0.5 -0.3999999999997226 0  0.5 -0.4099999999997503 0  0.5 -0.419999999999778 0  0.5 -0.4299999999998058 0  0.5 -0.4399999999998336 0  0.5 -0.4499999999998613 0  0.5 -0.4599999999998891 0  0.5 -0.4699999999999167 0  0.5 -0.4799999999999445 0  0.5 -0.4899999999999722 0  0.4900000000000277 -0.5 0  0.4800000000000555 -0.5 0  0.4700000000000832 -0.5 0  0.4600000000001109 -0.5 0  0.4500000000001387 -0.5 0  0.4400000000001664 -0.5 0  0.4300000000001942 -0.5 0  0.4200000000002219 -0.5 0  0.4100000000002497 -0.5 0  0.4000000000002774 -0.5 0  0.3900000000003052 -0.5 0  0.3800000000003328 -0.5 0  0.3700000000003606 -0.5 0  0.3600000000003883 -0.5 0  0.3500000000004161 -0.5 0  0.3400000000004438 -0.5 0  0.3300000000004716 -0.5 0  0.3200000000004993 -0.5 0  0.3100000000005271 -0.5 0  0.3000000000005548 -0.5 0  0.2900000000005825 -0.5 0  0.2800000000006103 -0.5 0  0.2700000000006381 -0.5 0  0.2600000000006658 -0.5 0  0.2500000000006935 -0.5 0  0.2400000000007212 -0.5 0  0.230000000000749 -0.5 0  0.2200000000007767 -0.5 0  0.2100000000008044 -0.5 0  0.2000000000008322 -0.5 0  0.19000000000086 -0.5 0  0.1800000000008877 -0.5 0  0.1700000000009154 -0.5 0  0.1600000000009431 -0.5 0  0.1500000000009709 -0.5 0  0.1400000000009986 -0.5 0  0.1300000000010264 -0.5 0  0.1200000000010541 -0.5 0  0.1100000000010818 -0.5 0  0.1000000000011096 -0.5 0  0.09000000000113734 -0.5 0  0.08000000000116503 -0.5 0  0.07000000000119283 -0.5 0  0.06000000000122058 -0.5 0  0.05000000000124827 -0.5 0  0.04000000000127607 -0.5 0  0.03000000000130376 -0.5 0  0.02000000000133151 -0.5 0  0.01000000000135925 -0.5 0  1.376121439022882e-12 -0.5 0  -0.009999999998640763 -0.5 0  -0.01999999999866864 -0.5 0  -0.02999999999869629 -0.5 0  -0.03999999999872406 -0.5 0  -0.04999999999875182 -0.5 0  -0.05999999999877947 -0.5 0  -0.06999999999880724 -0.5 0  -0.079999999998835 -0.5 0  -0.08999999999886266 -0.5 0  -0.09999999999889042 -0.5 0  -0.1099999999989182 -0.5 0  -0.1199999999989459 -0.5 0  -0.1299999999989737 -0.5 0  -0.1399999999990014 -0.5 0  -0.1499999999990291 -0.5 0  -0.1599999999990568 -0.5 0  -0.1699999999990847 -0.5 0  -0.1799999999991124 -0.5 0  -0.1899999999991401 -0.5 0  -0.1999999999991678 -0.5 0  -0.2099999999991955 -0.5 0  -0.2199999999992234 -0.5 0  -0.2299999999992511 -0.5 0  -0.2399999999992788 -0.5 0  -0.2499999999993066 -0.5 0  -0.2599999999993342 -0.5 0  -0.269999999999362 -0.5 0  -0.2799999999993897 -0.5 0  -0.2899999999994175 -0.5 0  -0.2999999999994452 -0.5 0  -0.3099999999994729 -0.5 0  -0.3199999999995007 -0.5 0  -0.3299999999995284 -0.5 0  -0.3399999999995562 -0.5 0  -0.3499999999995839 -0.5 0  -0.3599999999996116 -0.5 0  -0.3699999999996393 -0.5 0  -0.379999999999667 -0.5 0  -0.3899999999996949 -0.5 0  -0.3999999999997226 -0.5 0  -0.4099999999997503 -0.5 0  -0.419999999999778 -0.5 0  -0.4299999999998058 -0.5 0  -0.4399999999998336 -0.5 0  -0.4499999999998613 -0.5 0  -0.4599999999998891 -0.5 0  -0.4699999999999167 -0.5 0  -0.4799999999999445 -0.5 0  -0.4899999999999722 -0.5 0  -0.5 -0.4900000000000277 0  -0.5 -0.4800000000000555 0  -0.5 -0.4700000000000832 0  -0.5 -0.4600000000001109 0  -0.5 -0.4500000000001387 0  -0.5 -0.4400000000001664 0  -0.5 -0.4300000000001942 0  -0.5 -0.4200000000002219 0  -0.5 -0.4100000000002497 0  -0.5 -0.4000000000002774 0  -0.5 -0.3900000000003052 0  -0.5 -0.3800000000003328 0  -0.5 -0.3700000000003606 0  -0.5 -0.3600000000003883 0  -0.5 -0.3500000000004161 0  -0.5 -0.3400000000004438 0  -0.5 -0.3300000000004716 0  -0.5 -0.3200000000004993 0  -0.5 -0.3100000000005271 0  -0.5 -0.3000000000005548 0  -0.5 -0.2900000000005825 0  -0.5 -0.2800000000006103 0  -0.5 -0.2700000000006381 0  -0.5 -0.2600000000006658 0  -0.5 -0.2500000000006935 0  -0.5 -0.2400000000007212 0  -0.5 -0.230000000000749 0  -0.5 -0.2200000000007767 0  -0.5 -0.2100000000008044 0  -0.5 -0.2000000000008322 0  -0.5 -0.19000000000086 0  -0.5 -0.1800000000008877 0  -0.5 -0.1700000000009154 0  -0.5 -0.1600000000009431 0  -0.5 -0.1500000000009709 0  -0.5 -0.1400000000009986 0  -0.5 -0.1300000000010264 0  -0.5 -0.1200000000010541 0  -0.5 -0.1100000000010818 0  -0.5 -0.1000000000011096 0  -0.5 -0.09000000000113734 0  -0.5 -0.08000000000116503 0  -0.5 -0.07000000000119283 0  -0.5 -0.06000000000122058 0  -0.5 -0.05000000000124827 0  -0.5 -0.04000000000127607 0  -0.5 -0.03000000000130376 0  -0.5 -0.02000000000133151 0  -0.5 -0.01000000000135925 0  -0.5 -1.376121439022882e-12 0  -0.5 0.009999999998640763 0  -0.5 0.01999999999866864 0  -0.5 0.02999999999869629 0  -0.5 0.03999999999872406 0  -0.5 0.04999999999875182 0  -0.5 0.05999999999877947 0  -0.5 0.06999999999880724 0  -0.5 0.079999999998835 0  -0.5 0.08999999999886266 0  -0.5 0.09999999999889042
[...]
<PointData  Vectors="f_58-0"> 
<DataArray  type="Float64"  Name="f_58-0"  NumberOfComponents="3" format="ascii">1.7120483089810581e-01 1.6835675412364656e-01 0.0000000000000000e+00  -4.7931669798523639e-03 3.5519922960461068e-03 0.0000000000000000e+00  2.1449169692793393e-02 4.5691822090356375e-03 0.0000000000000000e+00  6.4135961206668642e-03 -8.0513350581440601e-02 0.0000000000000000e+00  1.8819044628190881e-02 0.0000000000000000e+00 0.0000000000000000e+00  1.2118747734410223e-03 0.0000000000000000e+00 0.0000000000000000e+00  -5.7143661646712925e-03 0.0000000000000000e+00 0.0000000000000000e+00  4.5884748956625254e-03 0.0000000000000000e+00 0.0000000000000000e+00  1.6841538639568668e-01 5.3728672255308266e-02 0.0000000000000000e+00  1.5363449216635655e-01 1.6582497571341076e-01 0.0000000000000000e+00  -3.9682832013470573e-02 6.0817577860417416e-02 0.0000000000000000e+00  1.3039442494211526e-01 1.4955620551990068e-01 0.0000000000000000e+00  1.3373489820883108e-01 -3.9796069628196762e-02 0.0000000000000000e+00  2.0942152168051961e-01 -3.8157760552119481e-02 0.0000000000000000e+00  2.3993459650535917e-01 9.4590929640141153e-02 0.0000000000000000e+00  7.2610963658168992e-02 8.7291413226812276e-02 0.0000000000000000e+00  1.8560065357562769e-01 1.5682572308864828e-01 0.0000000000000000e+00  1.3096286592556350e-01 -3.5575044958088067e-02 0.0000000000000000e+00  6.5220769300571454e-02 1.1392574318653019e-01 0.0000000000000000e+00  4.3627002344269278e-02 1.1084645359013962e-01 0.0000000000000000e+00  1.0739574629361648e-01 7.8266892415501929e-02 0.0000000000000000e+00  8.3618057037499860e-02 5.4841282305794041e-02 0.0000000000000000e+00  2.3444212353724980e-01 1.2210877778727694e-01 0.0000000000000000e+00  7.8201675256960299e-02 8.2592355701025619e-02 0.0000000000000000e+00  6.5691935455161402e-02 4.6236413523068211e-02 0.0000000000000000e+00  2.8197771705761838e-02 3.5957283556641545e-02 0.0000000000000000e+00  7.7236211757632442e-02 8.0180380926787517e-02 0.0000000000000000e+00  6.7489523162672524e-02 6.1438699179369546e-02 0.0000000000000000e+00  7.1055200006467797e-02 -2.4449930673252712e-02 0.0000000000000000e+00  -2.5178965334901908e-03 3.7855042734603730e-02 0.0000000000000000e+00  2.2525715147282931e-02 1.9693625027535182e-02 0.0000000000000000e+00  3.3667356782892788e-02 -2.4082165297322359e-03 0.0000000000000000e+00  1.3711390071548682e-02 1.5330181883337828e-02 0.0000000000000000e+00  1.1432678867486938e-02 1.2570540967763229e-02 0.0000000000000000e+00  6.9238527919874759e-03 -3.7234984119620368e-02 0.0000000000000000e+00  6.1404612049677483e-03 5.6836285393929934e-03 0.0000000000000000e+00  4.6324150137219324e-03 2.5952949982159280e-02 0.0000000000000000e+00  3.4437137338616072e-02 5.3946102612876612e-04 0.0000000000000000e+00  -4.8359432905099836e-02 3.1081340455756664e-02 0.0000000000000000e+00  -2.7516224866149346e-02 1.2155316256900080e-03 0.0000000000000000e+00  1.8027474069130946e-04 3.3867522841988927e-02 0.0000000000000000e+00  -2.5362355308434304e-03 -5.1455624616448127e-02 0.0000000000000000e+00  -1.0863254033365666e-03 2.5675049593150628e-02 0.0000000000000000e+00  2.9878935568799107e-02 2.9263174423750475e-02 0.0000000000000000e+00  3.0125014643965570e-02 -4.3555571662050381e-02 0.0000000000000000e+00  -2.5492623702116211e-02 -4.0176671197653278e-03 0.0000000000000000e+00  -3.8766733922642660e-03 -3.2787541136014798e-03 0.0000000000000000e+00  2.7044473014409921e-02 -4.3020181934077625e-02 0.0000000000000000e+00  -3.7962280795300926e-03 -3.4791776424967047e-03 0.0000000000000000e+00  -3.4449212932174600e-03 1.6125043330109615e-02 0.0000000000000000e+00  -1.8476489046093763e-02 1.4720506292976493e-02 0.0000000000000000e+00  -2.3319115845089754e-03 -5.2459909709660817e-03 0.0000000000000000e+00  2.2218859479648100e-02 2.0087458350059598e-02 0.0000000000000000e+00  -6.3022643934842392e-03 2.0670148668650124e-02 0.0000000000000000e+00  3.3928960918163366e-02 -1.9578246250343323e-02 0.0000000000000000e+00  3.1625092960985909e-02 -5.3192020140004998e-03 0.0000000000000000e+00  -1.9589829079217431e-02 -4.7678164013666988e-03 0.0000000000000000e+00  1.3587852879025848e-02 -1.8408701964406241e-03 0.0000000000000000e+00  -5.2846208477040253e-03 -1.9728393266440301e-02 0.0000000000000000e+00  1.2614064638850822e-02 -5.0076595808783726e-03 0.0000000000000000e+00  5.1486562692881540e-03 -3.2676478577938809e-03 0.0000000000000000e+00  -1.3336086725825119e-02 -4.7651106609774485e-03 0.0000000000000000e+00  -5.8164590806641112e-03 -5.2434488148281203e-04 0.0000000000000000e+00  6.3342428248470426e-03 7.3695439191082232e-04 0.0000000000000000e+00  -9.2213612135614895e-02 -7.6018429520071230e-04 0.0000000000000000e+00  -1.0330212188082917e-02 1.2373658740142670e-04 0.0000000000000000e+00  1.2508702808500825e-02 -1.1147317039826082e-02 0.0000000000000000e+00  9.0691853175302109e-03 -5.9110350634210523e-02 0.0000000000000000e+00  1.7975364130614502e-02 -6.4085273172419677e-03 0.0000000000000000e+00  -9.2839932511951176e-03 -9.3426761703436917e-03 0.0000000000000000e+00  1.1950637440484134e-02 1.0896187415815739e-02 0.0000000000000000e+00  1.0489372589555068e-02 2.4366405293738323e-02 0.0000000000000000e+00  -1.2599482959925853e-02 -1.2234910850490111e-02 0.0000000000000000e+00  4.9994210432370342e-03 -1.3368910918420584e-02 0.0000000000000000e+00  5.7782303381983587e-03 -6.0289618528024331e-03 0.0000000000000000e+00  -9.5207649386614152e-03 2.6864180854113469e-02 0.0000000000000000e+00  -7.4821464274760080e-03 -6.5655770466111199e-03 0.0000000000000000e+00  3.1556480838772299e-03 -4.0167905319818988e-03 0.0000000000000000e+00  -2.8555269356919607e-03 -2.7281996325455196e-03 0.0000000000000000e+00  6.5603614302357479e-03 -5.7870414515615700e-03 0.0000000000000000e+00  7.5566617670140513e-03 -7.3924275913677864e-03 0.0000000000000000e+00  -6.5899987408049837e-02 -1.3786104195156102e-02 0.0000000000000000e+00  -4.0693152618000456e-03 -2.7258965634592270e-03 0.0000000000000000e+00  1.0286638338642570e-02 1.0267337561050100e-02 0.0000000000000000e+00  -5.8329571317852517e-03 1.4456046307866677e-02 0.0000000000000000e+00  -6.9907288441388646e-03 -6.3286230807311165e-03 0.0000000000000000e+00  -1.3346191247464197e-02 -1.3308383102667061e-02 0.0000000000000000e+00  1.4511492362611412e-02 -1.3563171553884810e-02 0.0000000000000000e+00  -3.6858628741434578e-02 -1.5683054204646392e-02 0.0000000000000000e+00  1.3798887194439061e-02 -1.2759844499140182e-02 0.0000000000000000e+00  -1.3269472287820418e-02 -1.2364097578001563e-02 0.0000000000000000e+00  -4.3402605528831718e-02 -1.4736123711307789e-02 0.0000000000000000e+00  1.0994088309688073e-02 -4.6742494226482474e-02 0.0000000000000000e+00  9.5822001254400897e-03 8.4151688996378874e-03 0.0000000000000000e+00  1.0644924587524930e-02 1.0900855220439220e-02 0.0000000000000000e+00  -1.3431962368526507e-02 1.2750962080902286e-02 0.0000000000000000e+00  -1.3941927028020579e-02 -1.1038932353728215e-02 0.0000000000000000e+00  -1.3845632798532227e-02 1.3010567619611155e-02 0.0000000000000000e+00  1.3282266913461530e-02 -3.5227589410328823e-02 0.0000000000000000e+00  1.3159098435388645e-02 -1.1377956532951471e-02 0.0000000000000000e+00  -1.3101628366780121e-02 1.3664227219232512e-02 0.0000000000000000e+00  1.3310001078852100e-02 -1.3136063634076902e-02 0.0000000000000000e+00  -6.1832787517226229e-03 -8.0420988686199704e-03 0.0000000000000000e+00  1.0374764754510778e-02 -6.4824936455640733e-03 0.0000000000000000e+00  -5.0655195510168879e-02 -8.6857570567534809e-03 0.0000000000000000e+00  -6.5273000849342218e-03 6.9154684083662385e-03 0.0000000000000000e+00  -1.0618547296926783e-03 -1.1801009801464469e-02 0.0000000000000000e+00  3.1556113646914056e-03 -3.6087098985255112e-03 0.0000000000000000e+00  8.7978276610251940e-03 -1.4292217578247674e-03 0.0000000000000000e+00  4.3400209158515397e-04 1.4880968398098193e-02 0.0000000000000000e+00  2.1573465282357686e-02 2.4095090703473375e-03 0.0000000000000000e+00  2.1702938485809540e-02 2.4297089272633473e-03 0.0000000000000000e+00  2.3403504558393805e-02 2.3381583949127947e-02 0.0000000000000000e+00  2.1708278407494936e-03 2.3784954543499368e-02 0.0000000000000000e+00  -3.7387030198173306e-02 1.9054221510726600e-02 0.0000000000000000e+00  -2.9436555895874406e-02 4.3835819821274220e-02 0.0000000000000000e+00  4.5943537561336456e-02 1.8513542913603576e-03 0.0000000000000000e+00  -3.0076222142719433e-02 -2.5794836788076834e-02 0.0000000000000000e+00  -1.2762222589388668e-02 3.5425524360604192e-02 0.0000000000000000e+00  3.3486212330054811e-02 -1.2486989707271006e-02 0.0000000000000000e+00  1.8358562577171032e-02 -3.0841861737620734e-03 0.0000000000000000e+00  -1.5542701106333831e-02 -1.5374244980803069e-02 0.0000000000000000e+00  2.1886464064230633e-02 2.8586098540484380e-02 0.0000000000000000e+00  2.0704105117913613e-02 -1.3396773240902415e-02 0.0000000000000000e+00  2.0046817233919767e-02 -1.3465567154449630e-02 0.0000000000000000e+00  2.6385968242110498e-02 2.5608817125732337e-02 0.0000000000000000e+00  1.9168990158798631e-02 -2.2789986229201130e-03 0.0000000000000000e+00  6.0561761865772796e-03 1.2916122290150640e-03 0.0000000000000000e+00  1.6218986005411471e-02 2.1625791592725385e-02 0.0000000000000000e+00  1.6534847857189252e-02 3.6869352382151279e-05 0.0000000000000000e+00  1.7411281514722821e-02 1.7796120639230677e-02 0.0000000000000000e+00  1.6898709439606800e-02 1.7231275787590837e-02 0.0000000000000000e+00  2.1798197116234670e-02 1.1918998797686233e-02 0.0000000000000000e+00  2.0926441529524394e-02 2.0392751487191687e-02 0.0000000000000000e+00  6.6791311738334750e-03 6.3066996417267583e-03 0.0000000000000000e+00  -4.5086067633805793e-02 8.4540430265820036e-03 0.0000000000000000e+00  1.3371097557432921e-02 1.4014010606781147e-02 0.0000000000000000e+00  1.4489289270558378e-03 2.1356103704905802e-02 0.0000000000000000e+00  2.1078227205502235e-02 1.3091366386900201e-02 0.0000000000000000e+00  1.5568330033452070e-03 2.1027644723929522e-02 0.0000000000000000e+00  1.3691472670117551e-02 -1.6595278216544225e-02 0.0000000000000000e+00  -3.5062700059800139e-02 1.2917398718459476e-02 0.0000000000000000e+00  -1.6084203743494221e-03 2.0953808227877038e-02 0.0000000000000000e+00  1.2374858797706370e-03 2.1138989177791979e-02 0.0000000000000000e+00  -1.8271907484993365e-02 1.9212565036329517e-02 0.0000000000000000e+00  -1.8145656259773418e-02 1.7852550353151385e-02 0.0000000000000000e+00  -5.1004868237113591e-03 -1.8176266013223964e-02 0.0000000000000000e+00  1.9125398788273476e-02 -1.7901490892812198e-02 0.0000000000000000e+00  -9.5472143268114217e-03 9.5389029885471072e-04 0.0000000000000000e+00  -9.6724837052351107e-03 9.4249829332498827e-04 0.0000000000000000e+00  9.4452208080094801e-04 -5.1791152344113106e-02 0.0000000000000000e+00  -1.0138497447932377e-02 -1.0009785224279540e-02 0.0000000000000000e+00  1.1749627477643278e-02 2.3934246150595109e-02 0.0000000000000000e+00  2.3622375826241961e-02 1.3316389425412292e-02 0.0000000000000000e+00  2.3672379152369132e-02 1.3077067861377604e-02 0.0000000000000000e+00  2.2948841209886855e-02 7.4765704477646757e-04 0.0000000000000000e+00  2.0982756297428622e-02 1.4855840338840162e-04 0.0000000000000000e+00  1.7272621761254485e-02 1.6953111188359387e-02 0.0000000000000000e+00  1.6881309366303429e-02 2.0321044180195924e-02 0.0000000000000000e+00  1.9870554510500498e-02 -5.1277385962895911e-05 0.0000000000000000e+00  7.5303352090553535e-04 1.9264399317841109e-02 0.0000000000000000e+00  -9.5691394257868816e-04 1.5817012284851578e-02 0.0000000000000000e+00  9.0189998920014265e-04 1.9277161947127305e-02 0.0000000000000000e+00  1.5491130837758993e-02 1.9300403670812795e-02 0.0000000000000000e+00  1.6014682773460610e-02 1.6583134276074551e-02 0.0000000000000000e+00  6.2584344273994364e-03 2.5694445916624616e-02 0.0000000000000000e+00  2.5688496958064282e-02 2.5630812545017274e-02 0.0000000000000000e+00  2.5620207234659034e-02 2.5562967656014700e-02 0.0000000000000000e+00  -8.0919848944298860e-03 1.6667144102200009e-03 0.0000000000000000e+00  1.8011905350333798e-03 -8.7862085811847741e-03 0.0000000000000000e+00  -4.5298234553621343e-02 -8.5924445954861841e-03 0.0000000000000000e+00  2.2157415409269601e-02 8.1534017192847797e-04 0.0000000000000000e+00  1.3539708486690048e-03 2.0561771271691079e-02 0.0000000000000000e+00  1.6940500505976679e-03 2.0893406335945938e-02 0.0000000000000000e+00  1.2315281599032074e-03 1.5934418824013904e-03 0.0000000000000000e+00  1.6880181918162394e-02 1.7044237641430690e-02 0.0000000000000000e+00  -4.4750438921713350e-04 1.8618666047311906e-04 0.0000000000000000e+00  1.6648538028379980e-02 1.7080309030849339e-02 0.0000000000000000e+00  -6.1385977693812072e-03 -1.2559949750877293e-02 0.0000000000000000e+00  -1.1856066447928538e-02 1.9402806371090261e-03 0.0000000000000000e+00  -1.1541434872749463e-02 2.1739799436627629e-03 0.0000000000000000e+00  2.3651637637722205e-02 1.6790376644296896e-03 0.0000000000000000e+00  -6.3766261706091551e-03 1.2367575238945098e-03 0.0000000000000000e+00  2.5461656248658537e-02 6.3038728531423678e-03 0.0000000000000000e+00  2.5617201142872366e-02 1.3434748689900367e-03 0.0000000000000000e+00  -4.1643075364586758e-02 2.1613703463358325e-03 0.0000000000000000e+00  -6.5060949222581384e-03 2.3031679106207460e-03 0.0000000000000000e+00  -6.3107167013600144e-03 4.0939607200538601e-03 0.0000000000000000e+00  1.7074228046176931e-03 1.3824903836459882e-02 0.0000000000000000e+00  1.3921908833635060e-02 1.2518946084068331e-03 0.0000000000000000e+00  3.6043251990798973e-03 3.5258509721174595e-03 0.0000000000000000e+00  1.5656573745311958e-02 1.5531047044949677e-02 0.0000000000000000e+00  1.5672505220748940e-02 3.6444567239799349e-03 0.0000000000000000e+00  3.8227672984038528e-03 4.1466956911054538e-03 0.0000000000000000e+00  -1.9196956621996751e-04 -1.7113537403351249e-04 0.0000000000000000e+00  -1.2006598347900828e-04 1.5634212884522430e-04 0.0000000000000000e+00  -1.7947189742112009e-04 4.0114840910778090e-04 0.0000000000000000e+00  -2.0488700146096225e-03 -6.8035701829122292e-05 0.0000000000000000e+00  -5.2742677812969507e-05 -9.0843086911910744e-05 0.0000000000000000e+00  3.2644658467942721e-03 2.0182139578803309e-02 0.0000000000000000e+00  3.4136885367306380e-03 3.1147391616059726e-03 0.0000000000000000e+00  -2.7395833420840211e-03 -1.0667179499970209e-03 0.0000000000000000e+00  3.6185728374427883e-03 -2.6846961905850246e-03 0.0000000000000000e+00  3.0013132228715457e-03 2.1404706756766808e-02 0.0000000000000000e+00  2.1529936887186598e-02 2.1149834572042631e-02 0.0000000000000000e+00  3.1942253093643711e-03 3.1173413755118777e-03 0.0000000000000000e+00  1.8303233508612626e-02 3.2094392005110419e-03 0.0000000000000000e+00  3.0405851509649278e-03 1.9897888047451576e-02 0.0000000000000000e+00  3.3362039168549746e-03 1.9996638668667764e-02 0.0000000000000000e+00  1.9455815378469254e-02 3.6141795672599460e-03 0.0000000000000000e+00  3.4510374300527765e-03 2.1001589456048030e-02 0.0000000000000000e+00  1.9990314778365109e-03 -1.1535636148026969e-02 0.0000000000000000e+00  2.1597154991068956e-03 2.3172647967920012e-03 0.0000000000000000e+00  -1.1279185586218723e-02 1.1760768585574474e-02 0.0000000000000000e+00  2.0231017388222974e-03 3.0909054321804760e-03 0.0000000000000000e+00  -1.2528125975730334e-02 2.9101807114520566e-03 0.0000000000000000e+00  2.5640314813211353e-02 9.6333713505303165e-03 0.0000000000000000e+00  2.5358617059310747e-02 2.5297728544914359e-02 0.0000000000000000e+00  2.5445351327768772e-02 1.0115972624055773e-02 0.0000000000000000e+00  1.1259227792418283e-03 1.0094900900528988e-03 0.0000000000000000e+00  2.2254286447433783e-02 2.1936360185647649e-02 0.0000000000000000e+00  -5.9310596907135682e-04 1.6769149468236339e-02 0.0000000000000000e+00  1.3575147790141314e-02 2.1770175993699348e-02 0.0000000000000000e+00  8.6765228604775222e-04 1.5616569437172592e-02 0.0000000000000000e+00  1.6040139983695648e-02 9.5247122547678312e-03 0.0000000000000000e+00  2.1103178393709194e-02 -3.2120352358617533e-04 0.0000000000000000e+00  2.0771972693504753e-02 1.4504700547607122e-02 0.0000000000000000e+00  1.3255353618029242e-02 1.6462490874677896e-02 0.0000000000000000e+00  -3.7957305173395850e-02 -6.2137717050412128e-03 0.0000000000000000e+00  -1.6142705843647423e-02 7.4094545214804016e-03 0.0000000000000000e+00  -1.6021107075446624e-02 -1.3537284538708406e-02 0.0000000000000000e+00  -1.3229601701866739e-02 -1.2802990711068378e-02 0.0000000000000000e+00  3.6188911060870419e-03 -1.2666041922470350e-02 0.0000000000000000e+00  -4.2830826962074353e-02 -6.3078187139478789e-03 0.0000000000000000e+00  3.3746144583062816e-03 5.2265259660460757e-03 0.0000000000000000e+00  3.3834433432134568e-02 2.9928859457946039e-03 0.0000000000000000e+00  3.1904275267549471e-02 3.0454060024513882e-02 0.0000000000000000e+00  -1.4916010688563193e-02 -1.5631279363746104e-02 0.0000000000000000e+00  3.1243049667666306e-02 -1.5941696746395149e-02 0.0000000000000000e+00  -3.5250732382282025e-03 -1.4724680981938113e-02 0.0000000000000000e+00  1.0831893950147609e-02 9.5097484038707963e-03 0.0000000000000000e+00  -1.4760899769640111e-02 2.9607319935227472e-02 0.0000000000000000e+00  -1.4810973317359998e-02 2.9394293327282713e-02 0.0000000000000000e+00  9.0892781576859712e-03 9.5223919920223686e-03 0.0000000000000000e+00  7.6282169556329230e-04 7.0991675538125255e-04 0.0000000000000000e+00  3.1461066707472340e-02 3.1770147224376780e-02 0.0000000000000000e+00  -7.1244986710573494e-03 3.4156472673759861e-02 0.0000000000000000e+00  3.3641409737035007e-02 3.3763969572295494e-02 0.0000000000000000e+00  3.2025469711560596e-02 3.1260647048470827e-02 0.0000000000000000e+00  -1.1058568684166740e-02 3.0149070396066732e-02 0.0000000000000000e+00  4.3340707442185103e-04 -2.7082173060454977e-03 0.0000000000000000e+00  9.5607556222844173e-03 5.3340404177452884e-04 0.0000000000000000e+00  -1.3566118800386931e-02 -1.4572553406919894e-02 0.0000000000000000e+00  2.4738901107923709e-02 -1.5131710360121725e-02 0.0000000000000000e+00  -1.2236778283100051e-02 3.0061554963207945e-02 0.0000000000000000e+00  -3.4502155070837703e-03 -1.4331256354976236e-02 0.0000000000000000e+00  -1.1910432246849604e-02 2.9708218722960391e-02 0.0000000000000000e+00  -2.4295670468866506e-02 -2.1700358186462897e-02 0.0000000000000000e+00  3.0886123756824639e-02 -2.6136345037953628e-02 0.0000000000000000e+00  -1.9639204750150907e-03 -2.7724613559606936e-02 0.0000000000000000e+00  -2.9806388067236872e-02 3.2291306953252760e-02 0.0000000000000000e+00  -2.9422465358447638e-02 3.1794957945894819e-02 0.0000000000000000e+00  -1.4108862179547887e-02 3.1626762548595790e-02 0.0000000000000000e+00  3.1258014771715553e-02 3.1659545468403279e-02 0.0000000000000000e+00  3.1519351474476334e-02 3.1957013548254913e-02 0.0000000000000000e+00  3.2127889812066907e-02 -1.4281912628642294e-02 0.0000000000000000e+00  -1.7917101372969105e-02 3.4530752195638226e-02 0.0000000000000000e+00  -1.9028230355629075e-02 -1.6082928120290146e-02 0.0000000000000000e+00  -1.8831135337191766e-02 1.2267361662056225e-02 0.0000000000000000e+00  -1.9160561516108451e-02 1.0833670033124916e-02 0.0000000000000000e+00  4.6325897251528041e-04 1.4937807725344265e-02 0.0000000000000000e+00  -3.0092593397940997e-02 -2.7811700966115120e-02 0.0000000000000000e+00  1.4451232906841419e-02 1.1325721053119575e-02 0.0000000000000000e+00  -2.1230808052943432e-03 2.5162229157806994e-03 0.0000000000000000e+00  1.5400046861416243e-02 1.4654665791983231e-03 0.0000000000000000e+00  2.0002513169422994e-03 1.5148709280913547e-02 0.0000000000000000e+00  2.0536281374324938e-03 1.7536439157426317e-03 0.0000000000000000e+00  8.1582749999786468e-03 8.1324478232970721e-03 0.0000000000000000e+00  -2.6560744214603176e-03 3.4058034834866589e-03 0.0000000000000000e+00  -1.0147027023333513e-03 -7.6545166996537474e-04 0.0000000000000000e+00  1.0741813544243885e-02 5.3213585737323186e-04 0.0000000000000000e+00  1.07042190614083