<?xml version="1.0"?>
<VTKFile type="UnstructuredGrid"  version="0.1"  >
<UnstructuredGrid>
<Piece  NumberOfPoints="16275" NumberOfCells="32468">
<Points>
<DataArray  type="Float64"  NumberOfComponents="3"  format="ascii">-0.5 0.5 0  0.5 0.5 0  0.5 -0.5 0  -0.5 -0.5 0  -1 1 0  1 1 0  1 -1 0  -1 -1 0  -0.4900000000000277 0.5 0  -0.4800000000000555 0.5 0  -0.4700000000000832 0.5 0  -0.4600000000001109 0.5 0  -0.4500000000001387 0.5 0  -0.4400000000001664 0.5 0  -0.4300000000001942 0.5 0  -0.4200000000002219 0.5 0  -0.4100000000002497 0.5 0  -0.4000000000002774 0.5 0  -0.3900000000003052 0.5 0  -0.3800000000003328 0.5 0  -0.3700000000003606 0.5 0  -0.3600000000003883 0.5 0  -0.3500000000004161 0.5 0  -0.3400000000004438 0.5 0  -0.3300000000004716 0.5 0  -0.3200000000004993 0.5 0  -0.3100000000005271 0.5 0  -0.3000000000005548 0.5 0  -0.2900000000005825 0.5 0  -0.2800000000006103 0.5 0  -0.2700000000006381 0.5 0  -0.2600000000006658 0.5 0  -0.2500000000006935 0.5 0  -0.2400000000007212 0.5 0  -0.230000000000749 0.5 0  -0.2200000000007767 0.5 0  -0.2100000000008044 0.5 0  -0.2000000000008322 0.5 0  -0.19000000000086 0.5 0  -0.1800000000008877 0.5 0  -0.1700000000009154 0.5 0  -0.1600000000009431 0.5 0  -0.1500000000009709 0.5 0  -0.1400000000009986 0.5 0  -0.1300000000010264 0.5 0  -0.1200000000010541 0.5 0  -0.1100000000010818 0.5 0  -0.1000000000011096 0.5 0  -0.09000000000113734 0.5 0  -0.08000000000116503 0.5 0  -0.07000000000119283 0.5 0  -0.06000000000122058 0.5 0  -0.05000000000124827 0.5 0  -0.04000000000127607 0.5 0  -0.03000000000130376 0.5 0  -0.02000000000133151 0.5 0  -0.01000000000135925 0.5 0  -1.376121439022882e-12 0.5 0  0.009999999998640763 0.5 0  0.01999999999866864 0.5 0  0.02999999999869629 0.5 0  0.03999999999872406 0.5 0  0.04999999999875182 0.5 0  0.05999999999877947 0.5 0  0.06999999999880724 0.5 0  0.079999999998835 0.5 0  0.08999999999886266 0.5 0  0.09999999999889042 0.5 0  0.1099999999989182 0.5 0  0.1199999999989459 0.5 0  0.1299999999989737 0.5 0  0.1399999999990014 0.5 0  0.1499999999990291 0.5 0  0.1599999999990568 0.5 0  0.1699999999990847 0.5 0  0.1799999999991124 0.5 0  0.1899999999991401 0.5 0  0.1999999999991678 0.5 0  0.2099999999991955 0.5 0  0.2199999999992234 0.5 0  0.2299999999992511 0.5 0  0.2399999999992788 0.5 0  0.2499999999993066 0.5 0  0.2599999999993342 0.5 0  0.269999999999362 0.5 0  0.2799999999993897 0.5 0  0.2899999999994175 0.5 0  0.2999999999994452 0.5 0  0.3099999999994729 0.5 0  0.3199999999995007 0.5 0  0.3299999999995284 0.5 0  0.3399999999995562 0.5 0  0.3499999999995839 0.5 0  0.3599999999996116 0.5 0  0.3699999999996393 0.5 0  0.379999999999667 0.5 0  0.3899999999996949 0.5 0  0.3999999999997226 0.5 0  0.4099999999997503 0.5 0  0.419999999999778 0.5 0  0.4299999999998058 0.5 0  0.4399999999998336 0.5 0  0.4499999999998613 0.5 0  0.4599999999998891 0.5 0  0.4699999999999167 0.5 0  0.4799999999999445 0.5 0  0.4899999999999722 0.5 0  0.5 0.4900000000000277 0  0.5 0.4800000000000555 0  0.5 0.4700000000000832 0  0.5 0.4600000000001109 0  0.5 0.4500000000001387 0  0.5 0.4400000000001664 0  0.5 0.4300000000001942 0  0.5 0.4200000000002219 0  0.5 0.4100000000002497 0  0.5 0.4000000000002774 0  0.5 0.3900000000003052 0  0.5 0.3800000000003328 0  0.5 0.3700000000003606 0  0.5 0.3600000000003883 0  0.5 0.3500000000004161 0  0.5 0.3400000000004438 0  0.5 0.3300000000004716 0  0.5 0.3200000000004993 0  0.5 0.3100000000005271 0  0.5 0.3000000000005548 0  0.5 0.2900000000005825 0  0.5 0.2800000000006103 0  0.5 0.2700000000006381 0  0.5 0.2600000000006658 0  0.5 0.2500000000006935 0  0.5 0.2400000000007212 0  0.5 0.230000000000749 0  0.5 0.2200000000007767 0  0.5 0.2100000000008044 0  0.5 0.2000000000008322 0  0.5 0.19000000000086 0  0.5 0.1800000000008877 0  0.5 0.1700000000009154 0  0.5 0.1600000000009431 0  0.5 0.1500000000009709 0  0.5 0.1400000000009986 0  0.5 0.1300000000010264 0  0.5 0.1200000000010541 0  0.5 0.1100000000010818 0  0.5 0.1000000000011096 0  0.5 0.09000000000113734 0  0.5 0.08000000000116503 0  0.5 0.07000000000119283 0  0.5 0.06000000000122058 0  0.5 0.05000000000124827 0  0.5 0.04000000000127607 0  0.5 0.03000000000130376 0  0.5 0.02000000000133151 0  0.5 0.01000000000135925 0  0.5 1.376121439022882e-12 0  0.5 -0.009999999998640763 0  0.5 -0.01999999999866864 0  0.5 -0.02999999999869629 0  0.5 -0.03999999999872406 0  0.5 -0.04999999999875182 0  0.5 -0.05999999999877947 0  0.5 -0.06999999999880724 0  0.5 -0.079999999998835 0  0.5 -0.08999999999886266 0  0.5 -0.09999999999889042 0  0.5 -0.1099999999989182 0  0.5 -0.1199999999989459 0  0.5 -0.1299999999989737 0  0.5 -0.1399999999990014 0  0.5 -0.1499999999990291 0  0.5 -0.1599999999990568 0  0.5 -0.1699999999990847 0  0.5 -0.1799999999991124 0  0.5 -0.1899999999991401 0  0.5 -0.1999999999991678 0  0.5 -0.2099999999991955 0  0.5 -0.2199999999992234 0  0.5 -0.2299999999992511 0  0.5 -0.2399999999992788 0  0.5 -0.2499999999993066 0  0.5 -0.2599999999993342 0  0.5 -0.269999999999362 0  0.5 -0.2799999999993897 0  0.5 -0.2899999999994175 0  0.5 -0.2999999999994452 0  0.5 -0.3099999999994729 0  0.5 -0.3199999999995007 0  0.5 -0.3299999999995284 0  0.5 -0.3399999999995562 0  0.5 -0.3499999999995839 0  0.5 -0.3599999999996116 0  0.5 -0.3699999999996393 0  0.5 -0.379999999999667 0  0.5 -0.3899999999996949 0  0.5 -0.3999999999997226 0  0.5 -0.4099999999997503 0  0.5 -0.419999999999778 0  0.5 -0.4299999999998058 0  0.5 -0.4399999999998336 0  0.5 -0.4499999999998613 0  0.5 -0.4599999999998891 0  0.5 -0.4699999999999167 0  0.5 -0.4799999999999445 0  0.5 -0.4899999999999722 0  0.4900000000000277 -0.5 0  0.4800000000000555 -0.5 0  0.4700000000000832 -0.5 0  0.4600000000001109 -0.5 0  0.4500000000001387 -0.5 0  0.4400000000001664 -0.5 0  0.4300000000001942 -0.5 0  0.4200000000002219 -0.5 0  0.4100000000002497 -0.5 0  0.4000000000002774 -0.5 0  0.3900000000003052 -0.5 0  0.3800000000003328 -0.5 0  0.3700000000003606 -0.5 0  0.3600000000003883 -0.5 0  0.3500000000004161 -0.5 0  0.3400000000004438 -0.5 0  0.3300000000004716 -0.5 0  0.3200000000004993 -0.5 0  0.3100000000005271 -0.5 0  0.3000000000005548 -0.5 0  0.2900000000005825 -0.5 0  0.2800000000006103 -0.5 0  0.2700000000006381 -0.5 0  0.2600000000006658 -0.5 0  0.2500000000006935 -0.5 0  0.2400000000007212 -0.5 0  0.230000000000749 -0.5 0  0.2200000000007767 -0.5 0  0.2100000000008044 -0.5 0  0.2000000000008322 -0.5 0  0.19000000000086 -0.5 0  0.1800000000008877 -0.5 0  0.1700000000009154 -0.5 0  0.1600000000009431 -0.5 0  0.1500000000009709 -0.5 0  0.1400000000009986 -0.5 0  0.1300000000010264 -0.5 0  0.1200000000010541 -0.5 0  0.1100000000010818 -0.5 0  0.1000000000011096 -0.5 0  0.09000000000113734 -0.5 0  0.08000000000116503 -0.5 0  0.07000000000119283 -0.5 0  0.06000000000122058 -0.5 0  0.05000000000124827 -0.5 0  0.04000000000127607 -0.5 0  0.03000000000130376 -0.5 0  0.02000000000133151 -0.5 0  0.01000000000135925 -0.5 0  1.376121439022882e-12 -0.5 0  -0.009999999998640763 -0.5 0  -0.01999999999866864 -0.5 0  -0.02999999999869629 -0.5 0  -0.03999999999872406 -0.5 0  -0.04999999999875182 -0.5 0  -0.05999999999877947 -0.5 0  -0.06999999999880724 -0.5 0  -0.079999999998835 -0.5 0  -0.08999999999886266 -0.5 0  -0.09999999999889042 -0.5 0  -0.1099999999989182 -0.5 0  -0.1199999999989459 -0.5 0  -0.1299999999989737 -0.5 0  -0.1399999999990014 -0.5 0  -0.1499999999990291 -0.5 0  -0.1599999999990568 -0.5 0  -0.1699999999990847 -0.5 0  -0.1799999999991124 -0.5 0  -0.1899999999991401 -0.5 0  -0.1999999999991678 -0.5 0  -0.2099999999991955 -0.5 0  -0.2199999999992234 -0.5 0  -0.2299999999992511 -0.5 0  -0.2399999999992788 -0.5 0  -0.2499999999993066 -0.5 0  -0.2599999999993342 -0.5 0  -0.269999999999362 -0.5 0  -0.2799999999993897 -0.5 0  -0.2899999999994175 -0.5 0  -0.2999999999994452 -0.5 0  -0.3099999999994729 -0.5 0  -0.3199999999995007 -0.5 0  -0.3299999999995284 -0.5 0  -0.3399999999995562 -0.5 0  -0.3499999999995839 -0.5 0  -0.3599999999996116 -0.5 0  -0.3699999999996393 -0.5 0  -0.379999999999667 -0.5 0  -0.3899999999996949 -0.5 0  -0.3999999999997226 -0.5 0  -0.4099999999997503 -0.5 0  -0.419999999999778 -0.5 0  -0.4299999999998058 -0.5 0  -0.4399999999998336 -0.5 0  -0.4499999999998613 -0.5 0  -0.4599999999998891 -0.5 0  -0.4699999999999167 -0.5 0  -0.4799999999999445 -0.5 0  -0.4899999999999722 -0.5 0  -0.5 -0.4900000000000277 0  -0.5 -0.4800000000000555 0  -0.5 -0.4700000000000832 0  -0.5 -0.4600000000001109 0  -0.5 -0.4500000000001387 0  -0.5 -0.4400000000001664 0  -0.5 -0.4300000000001942 0  -0.5 -0.4200000000002219 0  -0.5 -0.4100000000002497 0  -0.5 -0.4000000000002774 0  -0.5 -0.3900000000003052 0  -0.5 -0.3800000000003328 0  -0.5 -0.3700000000003606 0  -0.5 -0.3600000000003883 0  -0.5 -0.3500000000004161 0  -0.5 -0.3400000000004438 0  -0.5 -0.3300000000004716 0  -0.5 -0.3200000000004993 0  -0.5 -0.3100000000005271 0  -0.5 -0.3000000000005548 0  -0.5 -0.2900000000005825 0  -0.5 -0.2800000000006103 0  -0.5 -0.2700000000006381 0  -0.5 -0.2600000000006658 0  -0.5 -0.2500000000006935 0  -0.5 -0.2400000000007212 0  -0.5 -0.230000000000749 0  -0.5 -0.2200000000007767 0  -0.5 -0.2100000000008044 0  -0.5 -0.2000000000008322 0  -0.5 -0.19000000000086 0  -0.5 -0.1800000000008877 0  -0.5 -0.1700000000009154 0  -0.5 -0.1600000000009431 0  -0.5 -0.1500000000009709 0  -0.5 -0.1400000000009986 0  -0.5 -0.1300000000010264 0  -0.5 -0.1200000000010541 0  -0.5 -0.1100000000010818 0  -0.5 -0.1000000000011096 0  -0.5 -0.09000000000113734 0  -0.5 -0.08000000000116503 0  -0.5 -0.07000000000119283 0  -0.5 -0.06000000000122058 0  -0.5 -0.05000000000124827 0  -0.5 -0.04000000000127607 0  -0.5 -0.03000000000130376 0  -0.5 -0.02000000000133151 0  -0.5 -0.01000000000135925 0  -0.5 -1.376121439022882e-12 0  -0.5 0.009999999998640763 0  -0.5 0.01999999999866864 0  -0.5 0.02999999999869629 0  -0.5 0.03999999999872406 0  -0.5 0.04999999999875182 0  -0.5 0.05999999999877947 0  -0.5 0.06999999999880724 0  -0.5 0.079999999998835 0  -0.5 0.08999999999886266 0  -0.5 0.09999999999889042
[...]
<PointData  Vectors="f_58-0"> 
<DataArray  type="Float64"  Name="f_58-0"  NumberOfComponents="3" format="ascii">1.5860945650747010e-02 2.0859568561526171e-02 0.0000000000000000e+00  6.6029367659404849e-03 -3.4622034830775882e-02 0.0000000000000000e+00  3.0881869957978151e-02 2.5929157705337141e-02 0.0000000000000000e+00  3.8096443673795881e-02 -2.4583036930407573e-01 0.0000000000000000e+00  -4.7479131949686534e-04 0.0000000000000000e+00 0.0000000000000000e+00  -1.0740611731000275e-02 0.0000000000000000e+00 0.0000000000000000e+00  -1.6019511663393989e-02 0.0000000000000000e+00 0.0000000000000000e+00  -2.4513490999016948e-05 0.0000000000000000e+00 0.0000000000000000e+00  2.1758308312878505e-02 6.1772858856518004e-03 0.0000000000000000e+00  2.0190521792553200e-02 1.5945305213362744e-02 0.0000000000000000e+00  -1.1130531433776968e-03 8.4816320762361175e-03 0.0000000000000000e+00  1.7578032885234088e-02 1.5008391356718456e-02 0.0000000000000000e+00  1.4046319590663688e-02 -4.8170317258793401e-04 0.0000000000000000e+00  1.7248992930519107e-02 -1.3857997948517231e-03 0.0000000000000000e+00  1.7834215310756987e-02 1.4745284409555052e-02 0.0000000000000000e+00  1.2093203455314266e-02 1.0476047944446629e-02 0.0000000000000000e+00  2.7574658263153737e-02 1.3592166619204704e-02 0.0000000000000000e+00  1.1481632320984533e-02 8.9125051222757850e-04 0.0000000000000000e+00  1.1692089879284594e-02 9.2027174196413937e-03 0.0000000000000000e+00  1.0417818710073435e-02 9.6628100955802858e-03 0.0000000000000000e+00  9.0781229355007889e-03 1.5707546393373274e-02 0.0000000000000000e+00  2.0363435350853606e-02 1.1480916873931081e-02 0.0000000000000000e+00  3.0762476499330629e-02 1.3777779630548979e-03 0.0000000000000000e+00  8.8232185019771481e-03 7.5572693805906199e-03 0.0000000000000000e+00  8.9031288392734716e-03 -2.0152880682688576e-03 0.0000000000000000e+00  2.9787385388346968e-03 3.2509112944096659e-03 0.0000000000000000e+00  6.9616407805451874e-03 7.1638482908449076e-03 0.0000000000000000e+00  6.5949204331267521e-03 7.9849537891015059e-03 0.0000000000000000e+00  6.7414369962257902e-03 1.6773313432340254e-03 0.0000000000000000e+00  8.5500441667382167e-03 3.9015497697165160e-03 0.0000000000000000e+00  3.9278116604538425e-03 3.8251285092788944e-03 0.0000000000000000e+00  -1.2219858703492556e-03 1.9261529856114113e-03 0.0000000000000000e+00  5.7979202684663774e-03 -1.0181361427734976e-02 0.0000000000000000e+00  4.6119011858315635e-03 5.2108977716974463e-03 0.0000000000000000e+00  7.6695967669302275e-03 -1.1508321065759917e-02 0.0000000000000000e+00  7.7534509857248831e-03 7.8632056790770132e-03 0.0000000000000000e+00  7.6479178123606611e-03 7.1061117972504766e-03 0.0000000000000000e+00  3.3433947654935734e-03 7.2007930463939100e-03 0.0000000000000000e+00  -5.5962432568813461e-02 2.1249479745380794e-03 0.0000000000000000e+00  -1.0500864024077692e-02 7.9116013747199052e-03 0.0000000000000000e+00  7.6955306586446188e-03 3.1451856838960813e-03 0.0000000000000000e+00  8.1136993609742074e-03 -6.0665980312744693e-02 0.0000000000000000e+00  8.1827907195369705e-03 1.7553624474856352e-03 0.0000000000000000e+00  2.3466997220621222e-03 1.7894331143476065e-03 0.0000000000000000e+00  2.0239750687738437e-03 -5.3441070713020906e-02 0.0000000000000000e+00  -1.0456741197616991e-02 7.7839457069625766e-03 0.0000000000000000e+00  7.7081501576674646e-03 7.8773179759493578e-03 0.0000000000000000e+00  2.1571018497678158e-03 -5.4180413310741048e-02 0.0000000000000000e+00  7.9360329199308372e-03 8.0124025376662380e-03 0.0000000000000000e+00  1.3048859746627004e-02 7.0911848258632757e-03 0.0000000000000000e+00  -4.3086289346500094e-03 7.1491256262151788e-03 0.0000000000000000e+00  1.2578830817224076e-02 8.0126680019271656e-03 0.0000000000000000e+00  2.2482749826630839e-03 2.0079430858206747e-03 0.0000000000000000e+00  1.2339841591068938e-02 7.5013886418512782e-03 0.0000000000000000e+00  -8.9078041553870505e-03 -2.9101247601492513e-03 0.0000000000000000e+00  -1.0688206300502415e-02 1.2412799865263363e-02 0.0000000000000000e+00  -3.5853790548658645e-03 1.2419427060102640e-02 0.0000000000000000e+00  8.4091938485357301e-03 1.0781654708447802e-02 0.0000000000000000e+00  1.0643261279752722e-02 -4.9310541644358649e-03 0.0000000000000000e+00  6.4794651614879977e-03 1.1376067658367807e-02 0.0000000000000000e+00  2.6163364802895802e-04 -2.9227248536869027e-03 0.0000000000000000e+00  -9.2213023589413703e-03 6.3444695853036781e-03 0.0000000000000000e+00  6.3226186354094008e-03 5.6328181794092292e-03 0.0000000000000000e+00  1.2672801398283610e-04 5.6596384139446275e-03 0.0000000000000000e+00  -9.8624477783505249e-02 -1.2234673150582679e-03 0.0000000000000000e+00  -9.1462385869173612e-03 -1.1030365762500155e-03 0.0000000000000000e+00  1.3238847000775625e-03 7.2572259920492977e-03 0.0000000000000000e+00  7.8260044018665790e-04 -7.4028478420920571e-02 0.0000000000000000e+00  -2.2073785337728708e-02 7.6458943277962757e-03 0.0000000000000000e+00  8.3855422326462020e-03 8.1317334911086524e-03 0.0000000000000000e+00  4.9265535189911558e-03 4.6917292901641457e-03 0.0000000000000000e+00  4.3736166324217247e-03 -1.6396287507325014e-02 0.0000000000000000e+00  7.0331835968813917e-03 6.5919715155411162e-03 0.0000000000000000e+00  5.8150338752388107e-04 -8.8951591611894799e-03 0.0000000000000000e+00  6.3713557287899928e-04 4.9509543480239140e-03 0.0000000000000000e+00  5.6971022720036651e-03 -1.2683816638579442e-02 0.0000000000000000e+00  -9.3445758305019389e-03 -9.2347743162614401e-03 0.0000000000000000e+00  2.6165004974026355e-03 -1.9836824654225400e-03 0.0000000000000000e+00  -2.2258273899959731e-03 -1.8664809168826776e-03 0.0000000000000000e+00  5.3880808707769889e-04 5.3982661611783620e-03 0.0000000000000000e+00  6.9731418553628283e-04 5.9908956787658478e-03 0.0000000000000000e+00  -7.9557748175527201e-02 -9.1683134932307488e-03 0.0000000000000000e+00  5.2665155884904363e-03 5.2832919789960681e-03 0.0000000000000000e+00  6.2615972299722633e-03 6.7133309529505865e-03 0.0000000000000000e+00  7.2194611246313573e-03 5.8648461819677993e-03 0.0000000000000000e+00  7.2363554518124484e-03 7.1897281815412944e-03 0.0000000000000000e+00  7.5602499305646772e-03 7.3730730918029307e-03 0.0000000000000000e+00  2.1267858105205530e-03 7.4310536597969037e-03 0.0000000000000000e+00  -5.9817447656519043e-02 -9.9937982044266058e-03 0.0000000000000000e+00  1.9041043336771818e-03 6.6584860227700358e-03 0.0000000000000000e+00  6.8918838098080432e-03 6.4268525468706966e-03 0.0000000000000000e+00  -6.4494107430097106e-02 -9.6560200658224581e-03 0.0000000000000000e+00  1.3773886682882323e-03 -6.6895219040624232e-02 0.0000000000000000e+00  5.5062649400946621e-03 5.0430126961368621e-03 0.0000000000000000e+00  5.2245544389193177e-03 5.0285340490174345e-03 0.0000000000000000e+00  6.3921777647351699e-03 1.8658358341946235e-03 0.0000000000000000e+00  6.6980709033697327e-03 -4.3626666710277887e-02 0.0000000000000000e+00  6.7213860028381622e-03 1.8900027580620949e-03 0.0000000000000000e+00  2.0106666858085822e-03 -5.9619686774698595e-02 0.0000000000000000e+00  1.8870585527984559e-03 9.0542414080408574e-03 0.0000000000000000e+00  8.1889127806773140e-03 2.5841219491026962e-03 0.0000000000000000e+00  2.5882552414040051e-03 8.2912300481857645e-03 0.0000000000000000e+00  8.3636986903110316e-03 7.9749233547567744e-03 0.0000000000000000e+00  4.0190561830158360e-03 8.0090950887626629e-03 0.0000000000000000e+00  -2.4618063161337689e-02 8.1697863170448418e-03 0.0000000000000000e+00  8.7181156753265605e-03 1.8889304703896867e-03 0.0000000000000000e+00  -3.7413294119014749e-02 -7.8735775670383343e-03 0.0000000000000000e+00  6.6566340249488822e-03 1.6648734242059129e-03 0.0000000000000000e+00  1.2914783079967030e-02 -1.5066595482174294e-03 0.0000000000000000e+00  5.3597122159739321e-04 2.1611212202839989e-02 0.0000000000000000e+00  3.0544331731533932e-02 2.9790044095730811e-03 0.0000000000000000e+00  3.0680410846103765e-02 2.9760005692479560e-03 0.0000000000000000e+00  3.3550789294713966e-02 3.3469815563991680e-02 0.0000000000000000e+00  8.0967134704164020e-04 3.3671944767000694e-02 0.0000000000000000e+00  -1.1874300237566891e-01 4.6288354259062130e-02 0.0000000000000000e+00  -9.5025096379258656e-02 1.3637573511462281e-01 0.0000000000000000e+00  1.4248153609987413e-01 -8.1389572806228216e-02 0.0000000000000000e+00  -9.7810159031776950e-02 -8.3389720840118420e-02 0.0000000000000000e+00  -4.1823966029533352e-02 1.1724222948510238e-01 0.0000000000000000e+00  1.1247764840543135e-01 -4.0379651902588132e-02 0.0000000000000000e+00  7.0245471025676076e-02 -1.2993922804161697e-02 0.0000000000000000e+00  -3.7226692518911093e-02 -3.6111353023477212e-02 0.0000000000000000e+00  8.0446670156124153e-02 9.9593855660016842e-02 0.0000000000000000e+00  7.7033218339414469e-02 -3.4725144170500620e-02 0.0000000000000000e+00  7.5129523190589825e-02 -3.3879600802961166e-02 0.0000000000000000e+00  9.3488099744521699e-02 9.1255155776296309e-02 0.0000000000000000e+00  2.7805008300592206e-02 -4.4706883060082850e-05 0.0000000000000000e+00  7.6638978880458047e-03 -1.7373227437222658e-04 0.0000000000000000e+00  2.0422933570510664e-02 3.1056471484465709e-02 0.0000000000000000e+00  2.0876297136200723e-02 -4.0115679783314486e-03 0.0000000000000000e+00  2.1883419805950256e-02 2.8115867120603630e-02 0.0000000000000000e+00  2.1248304410592434e-02 2.1590752847142562e-02 0.0000000000000000e+00  3.1672544391900384e-02 1.5099815559783635e-02 0.0000000000000000e+00  2.6383669878164821e-02 2.5508404340372180e-02 0.0000000000000000e+00  3.5121077314901328e-02 3.3821432020643305e-02 0.0000000000000000e+00  -1.3864350966857036e-01 4.0898744182792671e-02 0.0000000000000000e+00  1.6976416096655095e-02 1.7793554485266698e-02 0.0000000000000000e+00  -5.3451617190616615e-07 3.1118713246580460e-02 0.0000000000000000e+00  3.0719014089010475e-02 1.6638488760412046e-02 0.0000000000000000e+00  1.3280434228867170e-04 3.0599554359182053e-02 0.0000000000000000e+00  5.6379276164311425e-02 -3.3299708305988295e-02 0.0000000000000000e+00  -1.1910826487370552e-01 5.4410203637073995e-02 0.0000000000000000e+00  -1.1001747612803090e-03 3.0155965441319064e-02 0.0000000000000000e+00  -2.3145288095101376e-04 3.0410721295009730e-02 0.0000000000000000e+00  -3.2450167045536098e-02 7.1532987570618392e-02 0.0000000000000000e+00  -3.2216105983811819e-02 6.7956964878175430e-02 0.0000000000000000e+00  -1.6522758920597749e-02 -3.2845234793869020e-02 0.0000000000000000e+00  7.1474574057238671e-02 -3.2846984542643683e-02 0.0000000000000000e+00  4.3354122318183183e-03 8.3385480878311498e-03 0.0000000000000000e+00  3.7007163263256659e-03 8.6579325264163429e-03 0.0000000000000000e+00  9.0029151292699023e-03 -1.2743499827831350e-01 0.0000000000000000e+00  2.2993207888138160e-03 1.9836877181523323e-03 0.0000000000000000e+00  2.3465850523045957e-02 3.0578112276767579e-02 0.0000000000000000e+00  3.0071001648595594e-02 2.3935299039698456e-02 0.0000000000000000e+00  3.0244599814734492e-02 2.3963214992381871e-02 0.0000000000000000e+00  2.9343730944832454e-02 -8.1999416784812179e-03 0.0000000000000000e+00  2.6836021872226161e-02 -5.7470773284332621e-03 0.0000000000000000e+00  2.6625991067357805e-02 2.6514741361668821e-02 0.0000000000000000e+00  2.6296943634630865e-02 2.6075864611095453e-02 0.0000000000000000e+00  2.5444240133302043e-02 -5.3266432130016049e-03 0.0000000000000000e+00  -8.1253654960403241e-04 2.8362966502482063e-02 0.0000000000000000e+00  -2.9425355340402934e-03 2.0203070082602408e-02 0.0000000000000000e+00  -6.2867032754347185e-04 2.8536689603921927e-02 0.0000000000000000e+00  1.9771881691478057e-02 2.8640116863108533e-02 0.0000000000000000e+00  2.0449251595555121e-02 2.1191182460976444e-02 0.0000000000000000e+00  2.2265023987187434e-02 3.2870417622145598e-02 0.0000000000000000e+00  3.2721168583541127e-02 3.2500766925307727e-02 0.0000000000000000e+00  3.3101372036613709e-02 3.2850480397259317e-02 0.0000000000000000e+00  1.2546336163094947e-02 7.7678030194926794e-03 0.0000000000000000e+00  7.4478074182044969e-03 1.0189201259385340e-02 0.0000000000000000e+00  -1.0978025920609566e-01 1.0836602493385982e-02 0.0000000000000000e+00  3.1347040471576354e-02 -2.6305799720687650e-02 0.0000000000000000e+00  2.2309206440097692e-02 2.9721947171927447e-02 0.0000000000000000e+00  2.2530569098605249e-02 3.0238409386120733e-02 0.0000000000000000e+00  1.0709977292782898e-02 1.3766702461802904e-02 0.0000000000000000e+00  2.6004269238852070e-02 2.6010732076648238e-02 0.0000000000000000e+00  -4.4681975014076690e-03 -1.4865240217071254e-03 0.0000000000000000e+00  2.5808354711140118e-02 2.6321053390077110e-02 0.0000000000000000e+00  -1.4745810269622168e-02 -3.0610287257753911e-03 0.0000000000000000e+00  -5.9022949278954382e-04 1.5770846625570822e-02 0.0000000000000000e+00  6.1699691332252294e-04 1.6982567085021470e-02 0.0000000000000000e+00  3.1528667023352358e-02 2.1774431277428782e-02 0.0000000000000000e+00  -1.3313910938130110e-02 2.1978598667848136e-02 0.0000000000000000e+00  3.3871269345558855e-02 2.2274526049097295e-02 0.0000000000000000e+00  3.3758890506951390e-02 -1.7742460812676317e-02 0.0000000000000000e+00  -1.0251904640625556e-01 8.1508731957445398e-03 0.0000000000000000e+00  -1.3617463241136720e-02 8.2200577908381686e-03 0.0000000000000000e+00  1.8336613321505730e-02 7.9206622623884306e-03 0.0000000000000000e+00  2.6399861521132537e-02 1.8846272644141522e-02 0.0000000000000000e+00  1.9422053382155188e-02 2.6269234021373950e-02 0.0000000000000000e+00  2.6206804290954788e-02 2.6264498871977397e-02 0.0000000000000000e+00  2.3670494235223629e-02 2.3328132541360951e-02 0.0000000000000000e+00  2.3571880217960590e-02 2.6145060342769325e-02 0.0000000000000000e+00  2.6325080720412102e-02 2.6672206670499736e-02 0.0000000000000000e+00  -1.0826229891396170e-02 -1.0798965878083199e-02 0.0000000000000000e+00  -1.1018497645856440e-02 -1.2903427622357749e-02 0.0000000000000000e+00  -1.0527337898650230e-02 5.0956565225503316e-03 0.0000000000000000e+00  3.5279947328247588e-03 -1.1298054642582232e-02 0.0000000000000000e+00  -1.1109689148660630e-02 -1.0922491088650363e-02 0.0000000000000000e+00  2.4130614423119649e-02 3.0439174565495660e-02 0.0000000000000000e+00  2.4028161496671224e-02 2.3848260043877672e-02 0.0000000000000000e+00  -4.9188514869082716e-03 -2.9634492604317244e-02 0.0000000000000000e+00  2.3722246116001017e-02 -4.7828634338303380e-03 0.0000000000000000e+00  2.3412737202554577e-02 3.1677770358933544e-02 0.0000000000000000e+00  3.1584592826924961e-02 3.1282289227471186e-02 0.0000000000000000e+00  2.2795583374899727e-02 2.2897163461279946e-02 0.0000000000000000e+00  2.8801302555856629e-02 2.4177127522822865e-02 0.0000000000000000e+00  2.3888696215827402e-02 3.0093612052687797e-02 0.0000000000000000e+00  2.4082480606827064e-02 3.0371953568958214e-02 0.0000000000000000e+00  2.9690675381743144e-02 2.3840213081412744e-02 0.0000000000000000e+00  2.4336183875833157e-02 3.1511850168648201e-02 0.0000000000000000e+00  1.6029189877734964e-02 1.2828905703030887e-03 0.0000000000000000e+00  1.6713423434923741e-02 1.7477332325016800e-02 0.0000000000000000e+00  2.3266425270723362e-03 2.2360246206633246e-02 0.0000000000000000e+00  1.6079816989985649e-02 2.0733695493229651e-02 0.0000000000000000e+00  -1.9646481256246281e-03 2.0043800264358865e-02 0.0000000000000000e+00  3.3677145775005544e-02 2.2124890151938772e-02 0.0000000000000000e+00  3.3407363182406377e-02 3.3042819268499481e-02 0.0000000000000000e+00  3.3496566343584354e-02 2.2324596536426943e-02 0.0000000000000000e+00  -1.3758880170199096e-02 -1.2980958469472283e-02 0.0000000000000000e+00  2.9094823925833440e-02 2.8637895234642424e-02 0.0000000000000000e+00  -2.3864403712975956e-03 2.4745930289752471e-02 0.0000000000000000e+00  2.2649874165431991e-02 2.8341722986953810e-02 0.0000000000000000e+00  -6.0510372918293328e-04 2.3362638062949671e-02 0.0000000000000000e+00  2.3894808418513873e-02 1.1921825760670451e-02 0.0000000000000000e+00  2.7383186575598625e-02 -2.0592610769325946e-03 0.0000000000000000e+00  2.6906965339618814e-02 2.3154162496809221e-02 0.0000000000000000e+00  2.2353308720282888e-02 2.4916203339383974e-02 0.0000000000000000e+00  -1.1570690799815952e-01 -1.6494584766362005e-02 0.0000000000000000e+00  -1.6481214981465118e-02 3.6412940080018344e-02 0.0000000000000000e+00  -1.6211213693474519e-02 -5.9334445483996603e-03 0.0000000000000000e+00  -4.8468900800262976e-03 -3.0817576029056166e-03 0.0000000000000000e+00  2.2960914364955586e-02 -2.6935875223175199e-03 0.0000000000000000e+00  -1.1953832170072860e-01 -1.5636671375453746e-02 0.0000000000000000e+00  2.2010830793548205e-02 2.8375420169547624e-02 0.0000000000000000e+00  1.0347577985043670e-01 -4.6582925741227971e-04 0.0000000000000000e+00  9.9689225845292093e-02 9.4574559881373449e-02 0.0000000000000000e+00  -3.8539370301093279e-02 -3.9398944668921888e-02 0.0000000000000000e+00  9.7559130041134326e-02 -3.9699791640086267e-02 0.0000000000000000e+00  -1.2577880107083900e-02 -3.8581866840602906e-02 0.0000000000000000e+00  1.7381263325379766e-02 1.5586481091302468e-02 0.0000000000000000e+00  -3.8169113942818030e-02 9.1743442385129367e-02 0.0000000000000000e+00  -3.8611157662798046e-02 9.0798806531013340e-02 0.0000000000000000e+00  1.5015849349915547e-02 1.5552020949157501e-02 0.0000000000000000e+00  -1.1222528670933954e-03 1.1291240283351097e-03 0.0000000000000000e+00  9.9220897159352839e-02 1.0066083996545006e-01 0.0000000000000000e+00  -2.4683201992138974e-02 1.1013087643762230e-01 0.0000000000000000e+00  1.0822019685563364e-01 1.0807018322639599e-01 0.0000000000000000e+00  1.0195015168208138e-01 9.9876907448914073e-02 0.0000000000000000e+00  -2.9840001967267802e-02 9.6041455073688498e-02 0.0000000000000000e+00  7.0425242241204528e-04 5.3332452926148400e-05 0.0000000000000000e+00  1.5552391922161006e-02 -1.5936692303536312e-03 0.0000000000000000e+00  -3.5300119525728542e-02 -3.7365327386581507e-02 0.0000000000000000e+00  7.6823677000304125e-02 -3.7920079927612912e-02 0.0000000000000000e+00  -3.2922047050056934e-02 9.4555490544984744e-02 0.0000000000000000e+00  -1.1983429132257683e-02 -3.5689810808079418e-02 0.0000000000000000e+00  -3.2316487957609052e-02 9.3008128477839305e-02 0.0000000000000000e+00  -6.9036893046502137e-02 -6.1269668675572327e-02 0.0000000000000000e+00  8.5159749689718636e-02 -7.4506855665738489e-02 0.0000000000000000e+00  -6.2085393167415695e-03 -7.8867596197818399e-02 0.0000000000000000e+00  -8.5449330146821559e-02 8.7997549761606439e-02 0.0000000000000000e+00  -8.4077125849577078e-02 8.6130185957373623e-02 0.0000000000000000e+00  -3.5157722940157579e-02 9.5000474302637028e-02 0.0000000000000000e+00  9.3740604918817916e-02 9.4829070203067398e-02 0.0000000000000000e+00  9.3087731606970286e-02 9.3999048375162889e-02 0.0000000000000000e+00  9.4721277184871722e-02 -3.6690071738305761e-02 0.0000000000000000e+00  -4.8047535925168708e-02 9.8544948644544703e-02 0.0000000000000000e+00  -5.1376661726012775e-02 -4.2450360725626246e-02 0.0000000000000000e+00  -6.5889881603828526e-02 1.0665589657135988e-02 0.0000000000000000e+00  -6.5484559112194585e-02 5.5969352764012143e-03 0.0000000000000000e+00  3.0931609620827331e-03 2.5201300795606972e-02 0.0000000000000000e+00  -9.6088330960792473e-02 -9.1941554230818207e-02 0.0000000000000000e+00  2.5650666818512236e-02 1.3059720977637506e-02 0.0000000000000000e+00  -1.9936990658743395e-02 2.2194382885253074e-02 0.0000000000000000e+00  2.2954033661947107e-02 2.0802323272712860e-03 0.0000000000000000e+00  8.1345408663918662e-04 2.2594211599295796e-02 0.0000000000000000e+00  9.1491047097820469e-04 2.3874217885420318e-03 0.0000000000000000e+00  1.2581400367172072e-02 1.2661229845081477e-02 0.0000000000000000e+00  -2.3634203547995731e-04 3.6566651302428997e-03 0.0000000000000000e+00  -5.0122534144560226e-04 -1.6348793709433491e-04 0.0000000000000000e+00  1.6304479902268302e-02 1.3798655462086173e-03 0.0000000000000000e+00  1.6340287914815017e-02 1.1942082458051870e-03 0.000000