<?xml version="1.0"?>
<VTKFile type="UnstructuredGrid"  version="0.1"  >
<UnstructuredGrid>
<Piece  NumberOfPoints="16275" NumberOfCells="32468">
<Points>
<DataArray  type="Float64"  NumberOfComponents="3"  format="ascii">-0.5 0.5 0  0.5 0.5 0  0.5 -0.5 0  -0.5 -0.5 0  -1 1 0  1 1 0  1 -1 0  -1 -1 0  -0.4900000000000277 0.5 0  -0.4800000000000555 0.5 0  -0.4700000000000832 0.5 0  -0.4600000000001109 0.5 0  -0.4500000000001387 0.5 0  -0.4400000000001664 0.5 0  -0.4300000000001942 0.5 0  -0.4200000000002219 0.5 0  -0.4100000000002497 0.5 0  -0.4000000000002774 0.5 0  -0.3900000000003052 0.5 0  -0.3800000000003328 0.5 0  -0.3700000000003606 0.5 0  -0.3600000000003883 0.5 0  -0.3500000000004161 0.5 0  -0.3400000000004438 0.5 0  -0.3300000000004716 0.5 0  -0.3200000000004993 0.5 0  -0.3100000000005271 0.5 0  -0.3000000000005548 0.5 0  -0.2900000000005825 0.5 0  -0.2800000000006103 0.5 0  -0.2700000000006381 0.5 0  -0.2600000000006658 0.5 0  -0.2500000000006935 0.5 0  -0.2400000000007212 0.5 0  -0.230000000000749 0.5 0  -0.2200000000007767 0.5 0  -0.2100000000008044 0.5 0  -0.2000000000008322 0.5 0  -0.19000000000086 0.5 0  -0.1800000000008877 0.5 0  -0.1700000000009154 0.5 0  -0.1600000000009431 0.5 0  -0.1500000000009709 0.5 0  -0.1400000000009986 0.5 0  -0.1300000000010264 0.5 0  -0.1200000000010541 0.5 0  -0.1100000000010818 0.5 0  -0.1000000000011096 0.5 0  -0.09000000000113734 0.5 0  -0.08000000000116503 0.5 0  -0.07000000000119283 0.5 0  -0.06000000000122058 0.5 0  -0.05000000000124827 0.5 0  -0.04000000000127607 0.5 0  -0.03000000000130376 0.5 0  -0.02000000000133151 0.5 0  -0.01000000000135925 0.5 0  -1.376121439022882e-12 0.5 0  0.009999999998640763 0.5 0  0.01999999999866864 0.5 0  0.02999999999869629 0.5 0  0.03999999999872406 0.5 0  0.04999999999875182 0.5 0  0.05999999999877947 0.5 0  0.06999999999880724 0.5 0  0.079999999998835 0.5 0  0.08999999999886266 0.5 0  0.09999999999889042 0.5 0  0.1099999999989182 0.5 0  0.1199999999989459 0.5 0  0.1299999999989737 0.5 0  0.1399999999990014 0.5 0  0.1499999999990291 0.5 0  0.1599999999990568 0.5 0  0.1699999999990847 0.5 0  0.1799999999991124 0.5 0  0.1899999999991401 0.5 0  0.1999999999991678 0.5 0  0.2099999999991955 0.5 0  0.2199999999992234 0.5 0  0.2299999999992511 0.5 0  0.2399999999992788 0.5 0  0.2499999999993066 0.5 0  0.2599999999993342 0.5 0  0.269999999999362 0.5 0  0.2799999999993897 0.5 0  0.2899999999994175 0.5 0  0.2999999999994452 0.5 0  0.3099999999994729 0.5 0  0.3199999999995007 0.5 0  0.3299999999995284 0.5 0  0.3399999999995562 0.5 0  0.3499999999995839 0.5 0  0.3599999999996116 0.5 0  0.3699999999996393 0.5 0  0.379999999999667 0.5 0  0.3899999999996949 0.5 0  0.3999999999997226 0.5 0  0.4099999999997503 0.5 0  0.419999999999778 0.5 0  0.4299999999998058 0.5 0  0.4399999999998336 0.5 0  0.4499999999998613 0.5 0  0.4599999999998891 0.5 0  0.4699999999999167 0.5 0  0.4799999999999445 0.5 0  0.4899999999999722 0.5 0  0.5 0.4900000000000277 0  0.5 0.4800000000000555 0  0.5 0.4700000000000832 0  0.5 0.4600000000001109 0  0.5 0.4500000000001387 0  0.5 0.4400000000001664 0  0.5 0.4300000000001942 0  0.5 0.4200000000002219 0  0.5 0.4100000000002497 0  0.5 0.4000000000002774 0  0.5 0.3900000000003052 0  0.5 0.3800000000003328 0  0.5 0.3700000000003606 0  0.5 0.3600000000003883 0  0.5 0.3500000000004161 0  0.5 0.3400000000004438 0  0.5 0.3300000000004716 0  0.5 0.3200000000004993 0  0.5 0.3100000000005271 0  0.5 0.3000000000005548 0  0.5 0.2900000000005825 0  0.5 0.2800000000006103 0  0.5 0.2700000000006381 0  0.5 0.2600000000006658 0  0.5 0.2500000000006935 0  0.5 0.2400000000007212 0  0.5 0.230000000000749 0  0.5 0.2200000000007767 0  0.5 0.2100000000008044 0  0.5 0.2000000000008322 0  0.5 0.19000000000086 0  0.5 0.1800000000008877 0  0.5 0.1700000000009154 0  0.5 0.1600000000009431 0  0.5 0.1500000000009709 0  0.5 0.1400000000009986 0  0.5 0.1300000000010264 0  0.5 0.1200000000010541 0  0.5 0.1100000000010818 0  0.5 0.1000000000011096 0  0.5 0.09000000000113734 0  0.5 0.08000000000116503 0  0.5 0.07000000000119283 0  0.5 0.06000000000122058 0  0.5 0.05000000000124827 0  0.5 0.04000000000127607 0  0.5 0.03000000000130376 0  0.5 0.02000000000133151 0  0.5 0.01000000000135925 0  0.5 1.376121439022882e-12 0  0.5 -0.009999999998640763 0  0.5 -0.01999999999866864 0  0.5 -0.02999999999869629 0  0.5 -0.03999999999872406 0  0.5 -0.04999999999875182 0  0.5 -0.05999999999877947 0  0.5 -0.06999999999880724 0  0.5 -0.079999999998835 0  0.5 -0.08999999999886266 0  0.5 -0.09999999999889042 0  0.5 -0.1099999999989182 0  0.5 -0.1199999999989459 0  0.5 -0.1299999999989737 0  0.5 -0.1399999999990014 0  0.5 -0.1499999999990291 0  0.5 -0.1599999999990568 0  0.5 -0.1699999999990847 0  0.5 -0.1799999999991124 0  0.5 -0.1899999999991401 0  0.5 -0.1999999999991678 0  0.5 -0.2099999999991955 0  0.5 -0.2199999999992234 0  0.5 -0.2299999999992511 0  0.5 -0.2399999999992788 0  0.5 -0.2499999999993066 0  0.5 -0.2599999999993342 0  0.5 -0.269999999999362 0  0.5 -0.2799999999993897 0  0.5 -0.2899999999994175 0  0.5 -0.2999999999994452 0  0.5 -0.3099999999994729 0  0.5 -0.3199999999995007 0  0.5 -0.3299999999995284 0  0.5 -0.3399999999995562 0  0.5 -0.3499999999995839 0  0.5 -0.3599999999996116 0  0.5 -0.3699999999996393 0  0.5 -0.379999999999667 0  0.5 -0.3899999999996949 0  0.5 -0.3999999999997226 0  0.5 -0.4099999999997503 0  0.5 -0.419999999999778 0  0.5 -0.4299999999998058 0  0.5 -0.4399999999998336 0  0.5 -0.4499999999998613 0  0.5 -0.4599999999998891 0  0.5 -0.4699999999999167 0  0.5 -0.4799999999999445 0  0.5 -0.4899999999999722 0  0.4900000000000277 -0.5 0  0.4800000000000555 -0.5 0  0.4700000000000832 -0.5 0  0.4600000000001109 -0.5 0  0.4500000000001387 -0.5 0  0.4400000000001664 -0.5 0  0.4300000000001942 -0.5 0  0.4200000000002219 -0.5 0  0.4100000000002497 -0.5 0  0.4000000000002774 -0.5 0  0.3900000000003052 -0.5 0  0.3800000000003328 -0.5 0  0.3700000000003606 -0.5 0  0.3600000000003883 -0.5 0  0.3500000000004161 -0.5 0  0.3400000000004438 -0.5 0  0.3300000000004716 -0.5 0  0.3200000000004993 -0.5 0  0.3100000000005271 -0.5 0  0.3000000000005548 -0.5 0  0.2900000000005825 -0.5 0  0.2800000000006103 -0.5 0  0.2700000000006381 -0.5 0  0.2600000000006658 -0.5 0  0.2500000000006935 -0.5 0  0.2400000000007212 -0.5 0  0.230000000000749 -0.5 0  0.2200000000007767 -0.5 0  0.2100000000008044 -0.5 0  0.2000000000008322 -0.5 0  0.19000000000086 -0.5 0  0.1800000000008877 -0.5 0  0.1700000000009154 -0.5 0  0.1600000000009431 -0.5 0  0.1500000000009709 -0.5 0  0.1400000000009986 -0.5 0  0.1300000000010264 -0.5 0  0.1200000000010541 -0.5 0  0.1100000000010818 -0.5 0  0.1000000000011096 -0.5 0  0.09000000000113734 -0.5 0  0.08000000000116503 -0.5 0  0.07000000000119283 -0.5 0  0.06000000000122058 -0.5 0  0.05000000000124827 -0.5 0  0.04000000000127607 -0.5 0  0.03000000000130376 -0.5 0  0.02000000000133151 -0.5 0  0.01000000000135925 -0.5 0  1.376121439022882e-12 -0.5 0  -0.009999999998640763 -0.5 0  -0.01999999999866864 -0.5 0  -0.02999999999869629 -0.5 0  -0.03999999999872406 -0.5 0  -0.04999999999875182 -0.5 0  -0.05999999999877947 -0.5 0  -0.06999999999880724 -0.5 0  -0.079999999998835 -0.5 0  -0.08999999999886266 -0.5 0  -0.09999999999889042 -0.5 0  -0.1099999999989182 -0.5 0  -0.1199999999989459 -0.5 0  -0.1299999999989737 -0.5 0  -0.1399999999990014 -0.5 0  -0.1499999999990291 -0.5 0  -0.1599999999990568 -0.5 0  -0.1699999999990847 -0.5 0  -0.1799999999991124 -0.5 0  -0.1899999999991401 -0.5 0  -0.1999999999991678 -0.5 0  -0.2099999999991955 -0.5 0  -0.2199999999992234 -0.5 0  -0.2299999999992511 -0.5 0  -0.2399999999992788 -0.5 0  -0.2499999999993066 -0.5 0  -0.2599999999993342 -0.5 0  -0.269999999999362 -0.5 0  -0.2799999999993897 -0.5 0  -0.2899999999994175 -0.5 0  -0.2999999999994452 -0.5 0  -0.3099999999994729 -0.5 0  -0.3199999999995007 -0.5 0  -0.3299999999995284 -0.5 0  -0.3399999999995562 -0.5 0  -0.3499999999995839 -0.5 0  -0.3599999999996116 -0.5 0  -0.3699999999996393 -0.5 0  -0.379999999999667 -0.5 0  -0.3899999999996949 -0.5 0  -0.3999999999997226 -0.5 0  -0.4099999999997503 -0.5 0  -0.419999999999778 -0.5 0  -0.4299999999998058 -0.5 0  -0.4399999999998336 -0.5 0  -0.4499999999998613 -0.5 0  -0.4599999999998891 -0.5 0  -0.4699999999999167 -0.5 0  -0.4799999999999445 -0.5 0  -0.4899999999999722 -0.5 0  -0.5 -0.4900000000000277 0  -0.5 -0.4800000000000555 0  -0.5 -0.4700000000000832 0  -0.5 -0.4600000000001109 0  -0.5 -0.4500000000001387 0  -0.5 -0.4400000000001664 0  -0.5 -0.4300000000001942 0  -0.5 -0.4200000000002219 0  -0.5 -0.4100000000002497 0  -0.5 -0.4000000000002774 0  -0.5 -0.3900000000003052 0  -0.5 -0.3800000000003328 0  -0.5 -0.3700000000003606 0  -0.5 -0.3600000000003883 0  -0.5 -0.3500000000004161 0  -0.5 -0.3400000000004438 0  -0.5 -0.3300000000004716 0  -0.5 -0.3200000000004993 0  -0.5 -0.3100000000005271 0  -0.5 -0.3000000000005548 0  -0.5 -0.2900000000005825 0  -0.5 -0.2800000000006103 0  -0.5 -0.2700000000006381 0  -0.5 -0.2600000000006658 0  -0.5 -0.2500000000006935 0  -0.5 -0.2400000000007212 0  -0.5 -0.230000000000749 0  -0.5 -0.2200000000007767 0  -0.5 -0.2100000000008044 0  -0.5 -0.2000000000008322 0  -0.5 -0.19000000000086 0  -0.5 -0.1800000000008877 0  -0.5 -0.1700000000009154 0  -0.5 -0.1600000000009431 0  -0.5 -0.1500000000009709 0  -0.5 -0.1400000000009986 0  -0.5 -0.1300000000010264 0  -0.5 -0.1200000000010541 0  -0.5 -0.1100000000010818 0  -0.5 -0.1000000000011096 0  -0.5 -0.09000000000113734 0  -0.5 -0.08000000000116503 0  -0.5 -0.07000000000119283 0  -0.5 -0.06000000000122058 0  -0.5 -0.05000000000124827 0  -0.5 -0.04000000000127607 0  -0.5 -0.03000000000130376 0  -0.5 -0.02000000000133151 0  -0.5 -0.01000000000135925 0  -0.5 -1.376121439022882e-12 0  -0.5 0.009999999998640763 0  -0.5 0.01999999999866864 0  -0.5 0.02999999999869629 0  -0.5 0.03999999999872406 0  -0.5 0.04999999999875182 0  -0.5 0.05999999999877947 0  -0.5 0.06999999999880724 0  -0.5 0.079999999998835 0  -0.5 0.08999999999886266 0  -0.5 0.09999999999889042
[...]
<PointData  Scalars="f_58-1"> 
<DataArray  type="Float64"  Name="f_58-1"  format="ascii">8.5905873697120119e-02  -9.1098448454253824e-04  -4.1343880765661346e-03  1.7924800328073698e-02  4.9877198317814760e-03  7.6407068232177425e-02  2.8848757073494446e-02  6.2282942875759046e-03  8.5214589412190955e-02  -1.0938804439698319e-02  7.2505395251792989e-02  6.5822326885193114e-02  6.6617403677064146e-02  1.3742286402436321e-01  5.3089591368783239e-02  4.3978391334443867e-02  7.0536572833743677e-02  4.7469731532965742e-02  5.0591069061010428e-02  4.7414154567994443e-02  -1.0347013696475001e-02  3.7808589127246404e-02  -1.2665653542972529e-03  2.1805813651688589e-02  1.3879953209358519e-02  1.1477637284327800e-02  3.3396225148232192e-02  2.9642263151667330e-02  1.6668917677535644e-02  1.0286279836970082e-02  1.0373640192425138e-02  9.4283768197286361e-03  7.2228619787803958e-03  5.4857008719834616e-03  6.4342743439665278e-04  -1.6369930838237842e-04  8.4673268453183577e-03  -3.0717815231197680e-03  3.6390562307313449e-03  4.3936680385149906e-03  7.9362616107247711e-03  -5.6810183382898592e-03  -2.0033928634994214e-04  -3.7287049027121526e-03  4.2748134244503687e-03  -5.1329237150342898e-03  2.8386271235633590e-03  -6.3965103839599786e-03  1.3824715948855361e-03  7.5230914226023680e-03  -9.3196387617273391e-03  -8.7972832467013012e-03  -1.3091977139917423e-03  9.7921009385547059e-03  8.1162622761712482e-03  -5.9334693623086215e-02  9.6053227839917269e-03  5.8648819999696468e-03  5.9906652891977994e-03  5.7796615426325337e-03  -1.9689745796015505e-02  -1.1570871713932075e-02  -2.6071426886619911e-02  -1.4886207176481831e-02  4.7853089006738327e-03  4.2481379657082451e-03  -1.3437120373889293e-02  -2.3512612926867202e-01  -9.2654775737427419e-02  4.1057470757446101e-03  -1.4526043204522894e-02  -1.4384449339240594e-02  -2.0131690574599437e-01  -2.0347108838156956e-02  -1.2442709510519880e-02  1.0284499008594666e-02  -3.2711099404651112e-02  -1.5489779730000611e-02  -2.8136002379015140e-01  -1.9522705753469188e-02  -1.8228785024842303e-02  -1.6207886222648456e-02  -1.3664014364045124e-02  1.6411575642181653e-03  -1.1493627482831980e-02  5.9926851698517882e-03  -2.3240912323712701e-03  -1.8931338951106104e-03  -1.1341852541007114e-02  -4.1993604179524462e-03  -4.9168279524274463e-03  -1.3243313675462722e-02  -1.3595618886522930e-02  -1.2884930649284890e-01  1.6771450940897428e-03  -1.2918652041666692e-02  -1.2769360463200640e-02  -1.2394197127721700e-02  -1.2406871740186069e-02  -8.0749308889386598e-03  -7.4959419669776125e-03  -9.3256424707825955e-03  1.3893642103534887e-03  -1.4666794438332528e-01  -2.2904860821436942e-03  2.5227297587593709e-03  -2.8498751819167590e-03  8.9077532797526111e-04  -1.2206586607970743e-02  1.5782833107786550e-02  4.3801902604758847e-03  -2.5996750338030051e-02  1.0781220643216516e-02  2.7181196922685488e-02  2.0080866114516448e-02  -1.5934026521570116e-01  7.6551967591762832e-02  7.0586596831938145e-02  -2.9423250549091926e-02  -1.1373032341990076e-01  -1.0271966019069705e-01  4.2223168986651495e-02  5.6208128317650118e-02  -9.5877730556896718e-02  -1.0041254286833584e-01  -5.0296139009288920e-02  1.9566728579374162e-02  9.1902817319678004e-03  1.2509783957401283e-02  -1.6573037576500551e-03  2.1279536847340661e-02  1.9694448909052482e-02  2.2930907529913308e-02  2.3443675283627296e-02  -7.0496131466073669e-02  -7.1655568343663142e-02  -4.1743936426217529e-02  1.6636813770701721e-02  -4.0441629841977633e-02  1.6577390506811226e-02  -7.8540565883407729e-02  6.5925761237420220e-03  1.2960010817215628e-02  2.1973374648381391e-02  -9.0642401323678942e-02  -9.8826159216733656e-02  3.0139796505171821e-02  -7.2409568062508159e-02  -2.0575178694142671e-01  -5.2447828033489907e-02  -4.1052250561569963e-02  -5.3551910597177177e-02  1.3555676315839947e-02  2.5108207659649127e-02  2.5017930583124636e-02  -2.9435403800063221e-03  1.7399381373247154e-02  2.3477466449417374e-02  2.3064680909004067e-02  -4.7200145516853920e-02  1.9652068622165356e-02  2.0457980996630883e-02  1.9212288997052927e-02  2.3594715306642765e-02  8.5773455902858810e-03  6.7655180477801833e-03  8.9136838382637643e-03  -4.0802787510753655e-02  -3.4798258212889961e-02  -3.6128739013952860e-02  -1.9581494146851697e-01  -5.4019081111409918e-03  -5.6283561437650729e-03  -1.1242606583058362e-03  -4.9759026400416864e-02  2.2975363410642415e-02  1.7642847727612040e-02  1.7949909991661052e-02  -5.3285786649319593e-02  -3.3491614975992075e-02  -3.4541870539188918e-02  2.0612273517941157e-03  1.8543668843746915e-02  2.3033730563090885e-02  6.8789137797455532e-03  -2.8411428368467145e-02  -3.6082086913342512e-02  -2.8862908940113584e-02  -1.1076199933915502e-02  -9.9492272361135382e-03  -1.0008001980756381e-02  1.9748715588956505e-04  1.0003977121661096e-03  1.9499361019687498e-03  1.0648374874636645e-02  1.2632288066114656e-02  -6.0518487119470554e-03  -6.4432728292305825e-03  4.6410701092922391e-03  -1.1979013966870737e-01  -1.2648484490740536e-03  -7.0956447583807498e-04  -2.8963336960289334e-04  -5.4783154961920485e-03  6.6562504953112474e-04  1.6946636249873342e-02  -2.2532571401422475e-03  -5.8308049984877649e-03  1.2324032593421068e-02  1.4977527136384005e-03  2.2155601608152167e-03  -5.0085153860539702e-02  -6.9706585852093803e-03  1.2718299215536055e-02  -2.9440155866945098e-02  8.7990213687755368e-03  2.4603490496783641e-02  -6.8887277397806188e-02  1.0712225481838982e-02  -3.7415413221528184e-03  -5.1954976722575645e-02  1.9415286900738151e-02  2.4755162401976345e-02  1.4832430615296877e-02  1.6731474654555604e-02  2.4531712970404677e-02  2.4662071437851752e-02  2.2734618907612723e-02  -9.1370744880418658e-03  -2.4144386997143653e-02  -2.5436315709982379e-02  -2.7607267353657393e-02  -2.8712664321717339e-02  -5.3697744846389416e-02  -2.0653152079007978e-02  -1.4424030705850872e-02  6.9799998726397042e-02  7.1619347376364079e-02  7.2958240376026315e-02  6.6474652775610613e-02  -5.7286685896118350e-02  2.4105071319894789e-03  -1.3516364668611145e-02  2.4093535330104564e-03  -1.9680297839069556e-02  -5.1074280050241729e-04  -5.0287715451731746e-02  -5.6149158884533715e-03  -3.0994907570145110e-02  -5.2653978500482604e-02  1.7864265216930959e-03  2.0379169324508434e-03  2.7682018113047947e-03  -1.0921196399375220e-02  -4.7723383503722620e-02  6.4457962855002437e-02  1.3282271591543756e-03  -4.6586194678514020e-02  6.3544527633996664e-02  6.5827727100462530e-02  6.6748714950546795e-02  6.0726641365354914e-03  -1.0132846059775465e-02  -4.9773179597013543e-02  -4.8617479187161701e-02  6.3039137705890022e-02  6.8117826832711337e-02  6.6058714091105961e-02  3.3869358714391775e-03  3.4356751563034589e-03  -3.7296217525661146e-02  -3.5865499014795237e-02  -3.7531854753575622e-02  4.0613864065133735e-03  3.1733610665073088e-03  1.4991459623822119e-02  1.4246083103353069e-03  7.1576515563278606e-03  -4.7249841040930427e-04  -1.6609650851123099e-02  -1.7490705664020521e-02  2.5488171650730803e-03  9.5758177517455691e-04  2.7332559304509237e-03  2.0056925435576697e-03  -1.0117716573613169e-03  5.7730902271925521e-04  7.7909678089679527e-03  -1.0353250285191375e-03  -7.9815984266269147e-04  4.4878919501959887e-03  -1.4974143274233259e-03  6.0113979182252787e-03  1.0559410313746667e-03  -3.3247323200759722e-03  -1.0869726476385047e-02  -2.4008467544014214e-03  2.4939335602065424e-03  2.5772808324195498e-02  -3.3297087009039605e-02  -2.1649368273494471e-01  -2.1673614442623013e-01  -7.0904882379625583e-03  8.4405622507490053e-03  4.4142896304004047e-03  -1.1027564065146785e-01  -2.5216795696368005e-01  2.3479729240492565e-02  -3.4615038581240626e-02  -3.4773558347000966e-02  -2.1886965349388587e-01  -1.3241321889113328e-01  -1.1909903469292932e-01  1.4452397800440421e-02  -1.1615110657538082e-01  -1.7570914250814657e-02  -1.1381156387580130e-01  1.8705695852463639e-02  -1.1938499788971858e-01  -1.1630457919906732e-01  1.6886020200002561e-02  -2.2782454620712572e-02  -1.4441299132454372e-01  6.5643970760231804e-03  -2.4885685470957411e-01  3.3499827672969301e-02  -3.3395549279747028e-02  -1.3348712340241067e-01  -1.3496985574274439e-01  -6.9740484968351625e-03  -1.3046705760899310e-01  -1.7380763878297428e-02  -1.9700576992865093e-02  2.6638738544255327e-02  -1.0573689680025679e-02  -8.3738638661862120e-04  -1.7006659319585213e-01  -1.5608983987283839e-01  1.2622186957051129e-01  -1.3994911989399192e-01  -1.0120389572551658e+00  -8.5936289666182553e-01  3.4514865249669360e-02  -2.1013116290672498e-01  -6.7486328906621751e-01  -2.5399015277087784e-02  -6.5394541032457210e-01  -3.7645833160916059e-01  7.9979257135115209e-02  7.8493459216962741e-02  -1.8364025877788645e-01  -2.3462441817118315e-01  6.9292677534691979e-03  -4.0343388894142067e-02  -8.0879935715823630e-03  -8.2592907879410239e-03  1.3785815119263514e-02  -3.3506282928182078e-02  6.6351843361726658e-03  1.4856414195805018e-02  1.4440200659149315e-02  1.0617699398813121e-02  1.3052669313638346e-02  9.7032323978168845e-03  1.5435622969669291e-02  -2.9886284051556175e-02  1.0048096424333495e-02  1.5670165970655035e-02  1.6037320812865373e-02  1.6314660017101003e-02  1.8193402231991548e-02  1.0541966911461391e-02  -7.5308189929062753e-03  1.7286683590334657e-02  1.1580451795832449e-02  1.9574394091911199e-02  1.2859834493372430e-02  2.1853452218549087e-02  2.2476294264479713e-02  1.4174566427865670e-02  2.2368170457719317e-02  1.5122501010667717e-02  2.8089738637990833e-02  2.6205103035403934e-02  2.4594115903904850e-02  3.5279331849547173e-02  6.5307701218627634e-01  5.8367804732173278e-01  3.6088182553730599e-02  3.4764527019800401e-02  1.2943277419166932e-02  1.5219418500315387e-02  2.6803594828240629e-02  -1.3624725561204538e-02  1.2803202772660410e-01  1.3321223583749295e-01  1.8034417261215172e-01  -1.3100298211845674e-02  5.7532747569632899e-02  -3.3272370507272012e-02  6.9758076028417187e-02  7.7353281677484384e-02  7.9403722124256032e-02  1.3637942350702975e-02  4.0824042649275517e-03  3.1680892331131028e-03  2.5227864924002980e-03  2.3289878827570153e-03  3.4179046610314651e-03  1.4303291218799924e-03  -1.2639376249830348e-02  1.4758732462702878e-01  1.2932190315648665e-01  1.2599828968570115e-02  -1.6821674161035961e-02  -4.6698927820789060e-01  -1.0888178739187101e-02  -1.5080887885350894e-02  -1.3704299308445633e-01  3.2033149425337692e-02  3.3141109896347200e-02  2.5353540619485748e-03  -3.8527248165302119e-02  2.1785893118957270e-03  -6.4074425217009900e-02  -2.6805161213677424e-02  7.8122521269556339e-04  5.8244515527737322e-04  3.3738806270419042e-03  -1.8603081729190792e-02  1.4591456377094426e-03  -4.8209830130200573e-04  6.1399382408838460e-03  1.6156278751478147e-02  1.7783264205828785e-02  2.2580752000411441e-02  2.3783554932119939e-02  -4.8914190640132318e-02  1.6638726088635241e-02  -9.0956150555268359e-02  -1.5623631554717634e-02  2.8873288694060476e-02  4.2020861625454440e-04  6.4139937119398445e-03  2.4080579554100405e-04  -4.2555279418060614e-03  8.4675655922056292e-05  1.1784096133870107e-03  -2.0735418610393002e-02  -2.0169240114943032e-02  -2.5707548700285065e-04  6.5791514995943877e-03  -7.2383273238591575e-02  -1.5440630120463633e-01  -2.3019488042822450e-01  -2.0763944061058920e-01  -4.6564126996373162e-01  3.0232090776567693e-03  3.6755827965293717e-03  2.9471792270013902e-03  2.7249250486342759e-03  6.8542679927464647e-03  1.0459296805889128e-03  4.5409594585557383e-03  1.5992899472319872e-02  -3.6209571700113138e-03  8.2505012362008787e-02  -1.0016057472868416e+00  1.1909542259421124e-02  1.5622355672707674e-02  2.1905508246338676e-02  1.5460721249036743e-01  2.3035578527315368e-03  5.9881088025298020e-03  2.1027278324260972e-03  3.3727753544126608e-03  9.6804816022281054e-03  2.1156629160652148e-02  -2.0412021052956423e-02  3.8164317280660349e-03  -7.8662462654784347e-03  8.6650019820873911e-04  -2.6003407896798411e-03  -7.7208699683163769e-04  -8.4469812499978203e-03  -2.1837229389600947e-05  1.0584457507509162e-02  1.2075540726345556e-02  -8.7493686787186269e-03  5.7579264523719621e-02  9.6246806657821725e-03  1.5960822944299728e-04  -1.0183062563810387e-02  5.2741902880005936e-03  1.9067748427203282e-03  -8.7672091753577701e-05  -6.5093340016935753e-03  -3.4595932961030411e-02  -3.6285289009960219e-04  -1.9474923000291303e-02  -8.5543546247697239e-03  1.6826299062453327e-02  -1.6046314840246535e-02  4.3958598241690544e-02  2.0980303872634991e-02  9.4540746808526709e-03  -4.6341349761837179e-03  1.4040962089731648e-03  -1.6340605662685248e-02  -8.9602708415409196e-02  1.6030568960171841e-03  4.0384994477360617e-02  -1.8501509632625052e-01  1.4996539978940134e-03  -5.6368300036979416e-02  -1.0949404657921024e-02  1.9388890905894133e-02  -5.0400828408306729e-03  -1.0451560347180833e-01  -4.3957306846432384e-02  4.9449358458008123e-02  6.1597281075528496e-04  2.1905570972271568e-02  -7.2520055874147052e-03  -3.0635644448487504e-02  4.1221212427605194e-02  1.8175970509193996e-02  -6.4877702469181174e-03  -4.2551573151706670e-02  1.5840407537886098e-03  5.1393328582833575e-03  -3.6245238261010935e-03  7.5622159422405804e-04  3.1139346498905308e-02  -3.0623854298113630e-02  1.8200910720556826e-03  -1.0490239738311011e-02  5.0285300850499669e-02  1.4436135753372844e-02  -4.2412194532260696e-03  2.9025435525098630e-02  7.8026906169982348e-03  -7.7478789179140006e-03  -1.0819585092040252e-02  2.1205484220616980e-03  2.5082008331443906e-03  2.1201231904510946e-02  -4.1891716409862192e-03  -2.1516415077980251e-03  7.7369311455725877e-03  7.4123473256257968e-03  5.1799729500508738e-04  -4.0831625704207945e-02  1.1734839906815241e-02  2.6776417905791647e-02  -3.1563983245727323e-03  -2.3428881756517038e-04  8.1097620125600178e-02  4.7860032566065219e-02  1.1339245361611676e-02  7.2286199291545852e-03  6.9620423015931193e-04  -2.9186666218451868e-03  1.6918070699321758e-03  -5.1676370268566578e-02  -1.6950951346702109e-01  1.0697162823707184e-02  -1.1602300247348348e-02  -6.3508461700325395e-03  -1.2918282176305963e-02  -1.7534253052507184e-01  -9.6126899669910486e-03  -1.0499133948842471e-02  -1.5955953854321293e-02  -3.1778150492306111e-02  1.6877612747296305e-02  6.5297394407740614e-02  -1.6631297519685041e-02  1.0515020259436421e-03  -8.0527299796709535e-03  4.0788307828755033e-02  -8.9249008036195957e-03  -4.1267077698213025e-03  8.9476354374598104e-03  -1.0635029612578822e-02  4.4655744976842702e-04  -3.6854029065021953e-03  2.1404032558559050e-02  1.8400636298768216e-02  1.4029209294641186e-02  -1.8035864454410524e-03  7.3876846143808017e-02  -9.1050459663669613e-03  4.3985068917795009e-02  -2.9093944142044588e-02  -4.0825971695178983e-03  -6.9656378909735851e-03  2.3591467961410770e-03  -5.7083008431611825e-04  6.2969278653785283e-03  -1.0397140581325166e-02  1.2442485235169659e-02  1.3316978832531251e-03  4.3447974139906352e-03  2.4186400662465296e-03  4.7167051190412222e-02  -7.4204835641245831e-02  -3.0764722118228387e-02  3.8252718355102265e-02  3.7384790518643039e-02  7.7061746266863754e-02  -2.8498033113891357e-02  6.4557588485843970e-03  -7.0002948849040578e-03  3.6724337494921009e-03  -5.9123766867417811e-03  -4.9208462238056749e-04  -5.8150053078521675e-02  -1.4147904275588189e-02  -4.6690669855620960e-02  -1.5157265972286929e-03  3.7381060417538943e-04  1.0436006205231862e-02  2.8849157988729300e-02  8.1718753967466140e-02  -7.5949302635309537e-03  1.9391956151736674e-02  1.6108073867536762e-02  -9.5288488242144757e-03  7.4388912692520360e-03  1.1659288721299767e-02  3.4213137474687336e-02  6.8945968125486354e-02  1.3316914856127246e-02  1.1115444159422714e-03  7.0192278265719657e-03  9.1929139578651731e-04  2.1301071057776441e-02  5.0344471926393693e-02  6.8202477478174388e-03  -1.5743925418781554e-03  -5.2875298798648114e-02  1.6907994107353548e-03  -2.1741413296893105e-02  4.9110866378515939e-03  6.1582739232224355e-02  1.4144108103810513e-02  1.0960886967050248e-02  -1.9229334541842287e-02  -5.2471166149006543e-02  6.0065123204272632e-03  2.0692897232541172e-02  -2.4090922630060241e-02  4.9369438316850402e-02  2.6571271183273078e-02  1.4927092378825439e-02  -5.2130548435692363e-02  -2.1255033210876408e-03  -7.0022373786748013e-03  1.9915221722285742e-02  -7.2639934486604333e-03  5.1979796625685826e-03  -5.2829695567947641e-03  -1.8007652706833945e-03  3.6083655984762722e-02  -2.0314169913315475e-01  -3.8474060795839027e-03  1.9004574874166914e-03  -6.9193692765064665e-02  2.3544312459110952e-02  -3.6125734270266351e-02  1.8867266514154774e-01  -5.2967801926778798e-03  4.0610129808888708e-02  -1.2133010872674927e-03  2.7701889234420271e-03  -5.7011621193250117e-03  2.8197643568489902e-03  -5.3679741636099686e-03  -3.5300824178562500e-02  5.8364554209284257e-03  6.6896360134519897e-02  5.3044167692956109e-03  -3.4113459802575150e-03  -3.2369558487833787e-02  -3.1686423456630364e-02  -4.6192736239104311e-02  6.5311381754823141e-03  1.5488557570126371e-03  6.6638994586140060e-02  7.8867433383259956e-03  -1.0426796821910209e-01  3.8607040683776880e-03  -1.7521024916257795e-02  1.4688690137555475e-02  2.2045085476499967e-02  1.4069965787911099e-03  2.2001446848900968e-02  1.6313158897972517e-02  -1.5867554641865345e-03  2.2645384155956147e-03  3.9506693841449237e-03  8.1894276290765036e-03  -7.4776149116181564e-03  -1.2546645538909506e-03  1.3807427575472412e-02  1.5018948629948858e-02  -2.0622435472422370e-02  -2.5445775681135957e-02  1.0922752794510838e-02  2.7884618996687196e-03  5.4110512140393925e-02  2.4111458774200012e-02  -6.7950135787400194e-03  -8.4808358659560282e-03  -2.2679057266852013e-03  3.3950647316010364e-02  1.4934500281699308e-02  -1.0084044645432850e-02  -2.2660059775181665e-02  -1.2270778492999124e-01  -3.0397176588542681e-02  -5.9402620865807584e-04  -1.3790066495661842e-02  -3.4699624841558883e-02  -2.1197090602559737e-02  1.5633526369415937e-02  6.1694684867037945e-03  2.2713705683883208e-03  2.9123896640395362e-02  -2.1670567221132428e-01  -8.5429218559183277e-03  5.0567662657972065e-02  -7.0494719536458070e-02  -8.0255430910523187e-02  -1.0632266440949088e-02  2.0994180007603062e-02  1.1930811423402134e-01  -5.2775111151675226e-03  1.9216262296809242e-02  1.0210556109427329e-02  -1.5795934627755196e-02  6.8558926144225846e-03  -1.2072129111372319e-03  2.0037324039074884e-02  -1.1180110292385765e-03  -7.0488828428713294e-03  2.4081597155943196e-02  -3.6322067746733014e-03  3.9763858866818866e-03  -5.0739222448875432e-03  -3.3249425809706697e-02  1.0926542580237735e-03  4.0433218825460882e-03  1.0067273292799876e-02  -3.9993402706855183e-02  -4.2480549324741039e-02  -3.2132334340271192e-02  5.4270437138635948e-02  2.3596880655807808e-03  2.1771761374532576e-02  -6.5945827498434155e-03  -7.5041297434786606e-03  -3.4267909940984893e-02  2.1278630972894681e-02  1.1634852170307482e-01  1.8706617689496134e-03  1.7293577509615174e-02  9.8973549684615286e-03  -6.7227886263013766e-03  -3.5045961695174340e-03  7.8430356193239254e-03  -2.9125568282400101e-02  1.7841069002083008e-03  4.9750749324008053e-02  1.2028967563122779e-02  3.1149969621023003e-03  1.2152041137924395e-02  1.6381901205607799e-02  2.0917026764745533e-02  1.3193584123074611e-02  -6.7757059499840511e-02  8.3819897256469389e-04  -1.5810760322856218e-02  -5.3061601165146445e-02  1.2106267269666793e-02  1.6185855221966899e-02  -4.4203894070506964e-03  -3.3120544524239230e-02  -1.1212817239082499e-02  -2.2170591294695240e-03  1.1347515356726642e-02  7.7812601951002657e-03  -1.3803122811497583e-03  -5.8640027667596843e-02  4.2630088870206424e-02  1.9166884147358492e-02  1.6261430070179571e-02  4.7618576945101541e-02  5.8956526040942316e-03  -3.9643220948132183e-04  4.5979268376882133e-02  -2.1771873549713706e-02  8.0847144283117178e-02  7.2571658173423412e-02  -1.5055185397905058e-01  -3.7379268702141963e-02  3.5856008643776929e-02  -7.1820168377244751e-03  -8.4391161778783596e-03  -8.4141057534765515e-02  -1.8264000587066249e-02  5.1089498379397278e-03  1.1702003423117837e-02 