<?xml version="1.0"?>
<VTKFile type="UnstructuredGrid"  version="0.1"  >
<UnstructuredGrid>
<Piece  NumberOfPoints="16275" NumberOfCells="32468">
<Points>
<DataArray  type="Float64"  NumberOfComponents="3"  format="ascii">-0.5 0.5 0  0.5 0.5 0  0.5 -0.5 0  -0.5 -0.5 0  -1 1 0  1 1 0  1 -1 0  -1 -1 0  -0.4900000000000277 0.5 0  -0.4800000000000555 0.5 0  -0.4700000000000832 0.5 0  -0.4600000000001109 0.5 0  -0.4500000000001387 0.5 0  -0.4400000000001664 0.5 0  -0.4300000000001942 0.5 0  -0.4200000000002219 0.5 0  -0.4100000000002497 0.5 0  -0.4000000000002774 0.5 0  -0.3900000000003052 0.5 0  -0.3800000000003328 0.5 0  -0.3700000000003606 0.5 0  -0.3600000000003883 0.5 0  -0.3500000000004161 0.5 0  -0.3400000000004438 0.5 0  -0.3300000000004716 0.5 0  -0.3200000000004993 0.5 0  -0.3100000000005271 0.5 0  -0.3000000000005548 0.5 0  -0.2900000000005825 0.5 0  -0.2800000000006103 0.5 0  -0.2700000000006381 0.5 0  -0.2600000000006658 0.5 0  -0.2500000000006935 0.5 0  -0.2400000000007212 0.5 0  -0.230000000000749 0.5 0  -0.2200000000007767 0.5 0  -0.2100000000008044 0.5 0  -0.2000000000008322 0.5 0  -0.19000000000086 0.5 0  -0.1800000000008877 0.5 0  -0.1700000000009154 0.5 0  -0.1600000000009431 0.5 0  -0.1500000000009709 0.5 0  -0.1400000000009986 0.5 0  -0.1300000000010264 0.5 0  -0.1200000000010541 0.5 0  -0.1100000000010818 0.5 0  -0.1000000000011096 0.5 0  -0.09000000000113734 0.5 0  -0.08000000000116503 0.5 0  -0.07000000000119283 0.5 0  -0.06000000000122058 0.5 0  -0.05000000000124827 0.5 0  -0.04000000000127607 0.5 0  -0.03000000000130376 0.5 0  -0.02000000000133151 0.5 0  -0.01000000000135925 0.5 0  -1.376121439022882e-12 0.5 0  0.009999999998640763 0.5 0  0.01999999999866864 0.5 0  0.02999999999869629 0.5 0  0.03999999999872406 0.5 0  0.04999999999875182 0.5 0  0.05999999999877947 0.5 0  0.06999999999880724 0.5 0  0.079999999998835 0.5 0  0.08999999999886266 0.5 0  0.09999999999889042 0.5 0  0.1099999999989182 0.5 0  0.1199999999989459 0.5 0  0.1299999999989737 0.5 0  0.1399999999990014 0.5 0  0.1499999999990291 0.5 0  0.1599999999990568 0.5 0  0.1699999999990847 0.5 0  0.1799999999991124 0.5 0  0.1899999999991401 0.5 0  0.1999999999991678 0.5 0  0.2099999999991955 0.5 0  0.2199999999992234 0.5 0  0.2299999999992511 0.5 0  0.2399999999992788 0.5 0  0.2499999999993066 0.5 0  0.2599999999993342 0.5 0  0.269999999999362 0.5 0  0.2799999999993897 0.5 0  0.2899999999994175 0.5 0  0.2999999999994452 0.5 0  0.3099999999994729 0.5 0  0.3199999999995007 0.5 0  0.3299999999995284 0.5 0  0.3399999999995562 0.5 0  0.3499999999995839 0.5 0  0.3599999999996116 0.5 0  0.3699999999996393 0.5 0  0.379999999999667 0.5 0  0.3899999999996949 0.5 0  0.3999999999997226 0.5 0  0.4099999999997503 0.5 0  0.419999999999778 0.5 0  0.4299999999998058 0.5 0  0.4399999999998336 0.5 0  0.4499999999998613 0.5 0  0.4599999999998891 0.5 0  0.4699999999999167 0.5 0  0.4799999999999445 0.5 0  0.4899999999999722 0.5 0  0.5 0.4900000000000277 0  0.5 0.4800000000000555 0  0.5 0.4700000000000832 0  0.5 0.4600000000001109 0  0.5 0.4500000000001387 0  0.5 0.4400000000001664 0  0.5 0.4300000000001942 0  0.5 0.4200000000002219 0  0.5 0.4100000000002497 0  0.5 0.4000000000002774 0  0.5 0.3900000000003052 0  0.5 0.3800000000003328 0  0.5 0.3700000000003606 0  0.5 0.3600000000003883 0  0.5 0.3500000000004161 0  0.5 0.3400000000004438 0  0.5 0.3300000000004716 0  0.5 0.3200000000004993 0  0.5 0.3100000000005271 0  0.5 0.3000000000005548 0  0.5 0.2900000000005825 0  0.5 0.2800000000006103 0  0.5 0.2700000000006381 0  0.5 0.2600000000006658 0  0.5 0.2500000000006935 0  0.5 0.2400000000007212 0  0.5 0.230000000000749 0  0.5 0.2200000000007767 0  0.5 0.2100000000008044 0  0.5 0.2000000000008322 0  0.5 0.19000000000086 0  0.5 0.1800000000008877 0  0.5 0.1700000000009154 0  0.5 0.1600000000009431 0  0.5 0.1500000000009709 0  0.5 0.1400000000009986 0  0.5 0.1300000000010264 0  0.5 0.1200000000010541 0  0.5 0.1100000000010818 0  0.5 0.1000000000011096 0  0.5 0.09000000000113734 0  0.5 0.08000000000116503 0  0.5 0.07000000000119283 0  0.5 0.06000000000122058 0  0.5 0.05000000000124827 0  0.5 0.04000000000127607 0  0.5 0.03000000000130376 0  0.5 0.02000000000133151 0  0.5 0.01000000000135925 0  0.5 1.376121439022882e-12 0  0.5 -0.009999999998640763 0  0.5 -0.01999999999866864 0  0.5 -0.02999999999869629 0  0.5 -0.03999999999872406 0  0.5 -0.04999999999875182 0  0.5 -0.05999999999877947 0  0.5 -0.06999999999880724 0  0.5 -0.079999999998835 0  0.5 -0.08999999999886266 0  0.5 -0.09999999999889042 0  0.5 -0.1099999999989182 0  0.5 -0.1199999999989459 0  0.5 -0.1299999999989737 0  0.5 -0.1399999999990014 0  0.5 -0.1499999999990291 0  0.5 -0.1599999999990568 0  0.5 -0.1699999999990847 0  0.5 -0.1799999999991124 0  0.5 -0.1899999999991401 0  0.5 -0.1999999999991678 0  0.5 -0.2099999999991955 0  0.5 -0.2199999999992234 0  0.5 -0.2299999999992511 0  0.5 -0.2399999999992788 0  0.5 -0.2499999999993066 0  0.5 -0.2599999999993342 0  0.5 -0.269999999999362 0  0.5 -0.2799999999993897 0  0.5 -0.2899999999994175 0  0.5 -0.2999999999994452 0  0.5 -0.3099999999994729 0  0.5 -0.3199999999995007 0  0.5 -0.3299999999995284 0  0.5 -0.3399999999995562 0  0.5 -0.3499999999995839 0  0.5 -0.3599999999996116 0  0.5 -0.3699999999996393 0  0.5 -0.379999999999667 0  0.5 -0.3899999999996949 0  0.5 -0.3999999999997226 0  0.5 -0.4099999999997503 0  0.5 -0.419999999999778 0  0.5 -0.4299999999998058 0  0.5 -0.4399999999998336 0  0.5 -0.4499999999998613 0  0.5 -0.4599999999998891 0  0.5 -0.4699999999999167 0  0.5 -0.4799999999999445 0  0.5 -0.4899999999999722 0  0.4900000000000277 -0.5 0  0.4800000000000555 -0.5 0  0.4700000000000832 -0.5 0  0.4600000000001109 -0.5 0  0.4500000000001387 -0.5 0  0.4400000000001664 -0.5 0  0.4300000000001942 -0.5 0  0.4200000000002219 -0.5 0  0.4100000000002497 -0.5 0  0.4000000000002774 -0.5 0  0.3900000000003052 -0.5 0  0.3800000000003328 -0.5 0  0.3700000000003606 -0.5 0  0.3600000000003883 -0.5 0  0.3500000000004161 -0.5 0  0.3400000000004438 -0.5 0  0.3300000000004716 -0.5 0  0.3200000000004993 -0.5 0  0.3100000000005271 -0.5 0  0.3000000000005548 -0.5 0  0.2900000000005825 -0.5 0  0.2800000000006103 -0.5 0  0.2700000000006381 -0.5 0  0.2600000000006658 -0.5 0  0.2500000000006935 -0.5 0  0.2400000000007212 -0.5 0  0.230000000000749 -0.5 0  0.2200000000007767 -0.5 0  0.2100000000008044 -0.5 0  0.2000000000008322 -0.5 0  0.19000000000086 -0.5 0  0.1800000000008877 -0.5 0  0.1700000000009154 -0.5 0  0.1600000000009431 -0.5 0  0.1500000000009709 -0.5 0  0.1400000000009986 -0.5 0  0.1300000000010264 -0.5 0  0.1200000000010541 -0.5 0  0.1100000000010818 -0.5 0  0.1000000000011096 -0.5 0  0.09000000000113734 -0.5 0  0.08000000000116503 -0.5 0  0.07000000000119283 -0.5 0  0.06000000000122058 -0.5 0  0.05000000000124827 -0.5 0  0.04000000000127607 -0.5 0  0.03000000000130376 -0.5 0  0.02000000000133151 -0.5 0  0.01000000000135925 -0.5 0  1.376121439022882e-12 -0.5 0  -0.009999999998640763 -0.5 0  -0.01999999999866864 -0.5 0  -0.02999999999869629 -0.5 0  -0.03999999999872406 -0.5 0  -0.04999999999875182 -0.5 0  -0.05999999999877947 -0.5 0  -0.06999999999880724 -0.5 0  -0.079999999998835 -0.5 0  -0.08999999999886266 -0.5 0  -0.09999999999889042 -0.5 0  -0.1099999999989182 -0.5 0  -0.1199999999989459 -0.5 0  -0.1299999999989737 -0.5 0  -0.1399999999990014 -0.5 0  -0.1499999999990291 -0.5 0  -0.1599999999990568 -0.5 0  -0.1699999999990847 -0.5 0  -0.1799999999991124 -0.5 0  -0.1899999999991401 -0.5 0  -0.1999999999991678 -0.5 0  -0.2099999999991955 -0.5 0  -0.2199999999992234 -0.5 0  -0.2299999999992511 -0.5 0  -0.2399999999992788 -0.5 0  -0.2499999999993066 -0.5 0  -0.2599999999993342 -0.5 0  -0.269999999999362 -0.5 0  -0.2799999999993897 -0.5 0  -0.2899999999994175 -0.5 0  -0.2999999999994452 -0.5 0  -0.3099999999994729 -0.5 0  -0.3199999999995007 -0.5 0  -0.3299999999995284 -0.5 0  -0.3399999999995562 -0.5 0  -0.3499999999995839 -0.5 0  -0.3599999999996116 -0.5 0  -0.3699999999996393 -0.5 0  -0.379999999999667 -0.5 0  -0.3899999999996949 -0.5 0  -0.3999999999997226 -0.5 0  -0.4099999999997503 -0.5 0  -0.419999999999778 -0.5 0  -0.4299999999998058 -0.5 0  -0.4399999999998336 -0.5 0  -0.4499999999998613 -0.5 0  -0.4599999999998891 -0.5 0  -0.4699999999999167 -0.5 0  -0.4799999999999445 -0.5 0  -0.4899999999999722 -0.5 0  -0.5 -0.4900000000000277 0  -0.5 -0.4800000000000555 0  -0.5 -0.4700000000000832 0  -0.5 -0.4600000000001109 0  -0.5 -0.4500000000001387 0  -0.5 -0.4400000000001664 0  -0.5 -0.4300000000001942 0  -0.5 -0.4200000000002219 0  -0.5 -0.4100000000002497 0  -0.5 -0.4000000000002774 0  -0.5 -0.3900000000003052 0  -0.5 -0.3800000000003328 0  -0.5 -0.3700000000003606 0  -0.5 -0.3600000000003883 0  -0.5 -0.3500000000004161 0  -0.5 -0.3400000000004438 0  -0.5 -0.3300000000004716 0  -0.5 -0.3200000000004993 0  -0.5 -0.3100000000005271 0  -0.5 -0.3000000000005548 0  -0.5 -0.2900000000005825 0  -0.5 -0.2800000000006103 0  -0.5 -0.2700000000006381 0  -0.5 -0.2600000000006658 0  -0.5 -0.2500000000006935 0  -0.5 -0.2400000000007212 0  -0.5 -0.230000000000749 0  -0.5 -0.2200000000007767 0  -0.5 -0.2100000000008044 0  -0.5 -0.2000000000008322 0  -0.5 -0.19000000000086 0  -0.5 -0.1800000000008877 0  -0.5 -0.1700000000009154 0  -0.5 -0.1600000000009431 0  -0.5 -0.1500000000009709 0  -0.5 -0.1400000000009986 0  -0.5 -0.1300000000010264 0  -0.5 -0.1200000000010541 0  -0.5 -0.1100000000010818 0  -0.5 -0.1000000000011096 0  -0.5 -0.09000000000113734 0  -0.5 -0.08000000000116503 0  -0.5 -0.07000000000119283 0  -0.5 -0.06000000000122058 0  -0.5 -0.05000000000124827 0  -0.5 -0.04000000000127607 0  -0.5 -0.03000000000130376 0  -0.5 -0.02000000000133151 0  -0.5 -0.01000000000135925 0  -0.5 -1.376121439022882e-12 0  -0.5 0.009999999998640763 0  -0.5 0.01999999999866864 0  -0.5 0.02999999999869629 0  -0.5 0.03999999999872406 0  -0.5 0.04999999999875182 0  -0.5 0.05999999999877947 0  -0.5 0.06999999999880724 0  -0.5 0.079999999998835 0  -0.5 0.08999999999886266 0  -0.5 0.09999999999889042
[...]
<PointData  Vectors="f_58-0"> 
<DataArray  type="Float64"  Name="f_58-0"  NumberOfComponents="3" format="ascii">-2.2835482227962476e-02 2.1297723041471730e-02 0.0000000000000000e+00  6.1210571753240461e-03 -5.1037747835163391e-02 0.0000000000000000e+00  5.4542638308028128e-03 7.6514113037215292e-03 0.0000000000000000e+00  3.0526412207267546e-02 -6.7619304274927467e-04 0.0000000000000000e+00  -1.1597557601382645e-02 0.0000000000000000e+00 0.0000000000000000e+00  -2.7192364820305376e-02 0.0000000000000000e+00 0.0000000000000000e+00  -1.0164982813507343e-02 0.0000000000000000e+00 0.0000000000000000e+00  2.2361720875204057e-02 0.0000000000000000e+00 0.0000000000000000e+00  2.3671840305496190e-02 -1.7495917862645907e-01 0.0000000000000000e+00  2.1715562383760337e-02 -1.8880243938132427e-02 0.0000000000000000e+00  1.2530466972879080e-02 -1.2255515527995746e-01 0.0000000000000000e+00  1.8458523575322197e-02 -1.6036707343082580e-02 0.0000000000000000e+00  -1.2915614354359424e-02 1.4611256657780408e-02 0.0000000000000000e+00  -3.4629946426334844e-02 1.0186296841719017e-02 0.0000000000000000e+00  -4.6948904313671054e-02 1.6818078854632594e-02 0.0000000000000000e+00  1.3727671597742457e-02 -3.8521013270766884e-03 0.0000000000000000e+00  3.6718837113564655e-02 -1.5383923064513104e-02 0.0000000000000000e+00  -2.2401089612894803e-02 1.7014422594631814e-02 0.0000000000000000e+00  1.3620802455734736e-02 -2.3279777280580387e-02 0.0000000000000000e+00  1.5305844860071334e-02 -2.0261334189337708e-02 0.0000000000000000e+00  -2.0970597232904849e-02 -2.0407214279402942e-02 0.0000000000000000e+00  5.0552029130298166e-03 1.2845065390592882e-02 0.0000000000000000e+00  3.8713663338308314e-02 -2.7992218608561641e-02 0.0000000000000000e+00  -1.5714435640640984e-02 -1.4978485044177401e-02 0.0000000000000000e+00  -1.1517936289343958e-02 -2.8467104282515972e-02 0.0000000000000000e+00  -5.2391312942959281e-03 -7.3556767244360869e-03 0.0000000000000000e+00  -1.6011212830057086e-02 -1.6288473962785890e-02 0.0000000000000000e+00  -1.4538382004123900e-02 -4.0536678494588569e-03 0.0000000000000000e+00  -1.5330375153741997e-02 1.5775662078927364e-02 0.0000000000000000e+00  1.8388201232751436e-02 -8.0074275147457661e-03 0.0000000000000000e+00  -2.0010383987344909e-03 -8.9994685211123606e-04 0.0000000000000000e+00  -1.8508938360382216e-02 8.7293368114613485e-03 0.0000000000000000e+00  6.7752979452083912e-03 -3.5775454019197496e-02 0.0000000000000000e+00  4.8748721086533525e-03 5.8169622219229793e-03 0.0000000000000000e+00  1.3037542679781119e-02 -9.9623621492389430e-03 0.0000000000000000e+00  1.2944121765949678e-02 1.2910445454395687e-02 0.0000000000000000e+00  1.0564322599442023e-02 9.4639353901522956e-03 0.0000000000000000e+00  3.6950439268724528e-03 1.1354615676930387e-02 0.0000000000000000e+00  -1.6429776769853238e-01 2.8640950861822090e-03 0.0000000000000000e+00  -9.1003708452416562e-03 1.1933482837563963e-02 0.0000000000000000e+00  1.1644113357933784e-02 3.6465969318163747e-03 0.0000000000000000e+00  1.0596729212937740e-02 -1.6422903541864614e-01 0.0000000000000000e+00  1.1022953827656778e-02 3.6172503775624668e-03 0.0000000000000000e+00  3.5763355026124924e-03 2.7788903748884805e-03 0.0000000000000000e+00  2.9567600125157511e-03 -1.5292293644398403e-01 0.0000000000000000e+00  -8.5977797776830393e-03 1.0710217692905023e-02 0.0000000000000000e+00  1.0685379077392584e-02 1.0843238590295512e-02 0.0000000000000000e+00  3.9810268882010903e-03 -1.4985691997343314e-01 0.0000000000000000e+00  1.0675683756271025e-02 1.0609066655386724e-02 0.0000000000000000e+00  2.4260851979627688e-02 4.4901794713329011e-03 0.0000000000000000e+00  2.8551587029008126e-03 5.5982096622614304e-03 0.0000000000000000e+00  2.2622978909625165e-02 1.0099362236896878e-02 0.0000000000000000e+00  5.1877316274448393e-03 5.1890033630802987e-03 0.0000000000000000e+00  2.4280370598119407e-02 2.2339617626008683e-03 0.0000000000000000e+00  -1.6763116390052700e-02 5.8966927991298355e-03 0.0000000000000000e+00  -1.9723645837967541e-02 2.3614005364284322e-02 0.0000000000000000e+00  4.7888078776570564e-03 2.3358339332318158e-02 0.0000000000000000e+00  1.0443499119491835e-02 1.8087239510701347e-02 0.0000000000000000e+00  1.9959458962836216e-02 2.3485097061275921e-03 0.0000000000000000e+00  5.1961932193240745e-03 2.1305060243575504e-02 0.0000000000000000e+00  -7.8825211793315635e-03 -3.5296874209014696e-03 0.0000000000000000e+00  -7.9424066378748302e-03 3.2452442242728316e-03 0.0000000000000000e+00  3.3270038965061569e-03 4.7651015754722313e-04 0.0000000000000000e+00  3.1881973024721873e-03 3.9873228661365485e-04 0.0000000000000000e+00  -1.9278903299619371e-01 1.2938953324790697e-03 0.0000000000000000e+00  -8.0823529041481827e-03 1.5039539940066057e-03 0.0000000000000000e+00  4.9226613310226729e-03 5.7304367711114596e-03 0.0000000000000000e+00  4.0787939487207442e-03 -1.5286829520142306e-01 0.0000000000000000e+00  -3.4126045184551458e-02 1.3836337063914050e-02 0.0000000000000000e+00  1.7410951394078021e-02 1.6951455267256492e-02 0.0000000000000000e+00  1.7707218540727518e-03 2.2297357556423608e-03 0.0000000000000000e+00  1.7352398759535000e-03 -2.4443925809150592e-02 0.0000000000000000e+00  4.4619826085580856e-03 3.4776463664412472e-03 0.0000000000000000e+00  3.0444654962971636e-03 -7.7452126049603531e-03 0.0000000000000000e+00  3.2741627708044161e-03 -3.4773865127245247e-05 0.0000000000000000e+00  1.3902769582686832e-02 -1.4915216301997722e-02 0.0000000000000000e+00  -7.7863412153477366e-03 -7.9268739588849030e-03 0.0000000000000000e+00  -6.3396859139679337e-03 -5.1895087450673310e-04 0.0000000000000000e+00  -1.9067730733286267e-03 -1.2963685945780704e-03 0.0000000000000000e+00  3.4840268829831283e-03 8.9854829459638916e-04 0.0000000000000000e+00  3.7576055088251984e-03 2.6328301981308152e-03 0.0000000000000000e+00  -1.5805945029883603e-01 -7.7380342008979783e-03 0.0000000000000000e+00  6.7078889898420114e-05 -2.1224114471918244e-04 0.0000000000000000e+00  7.0330043830931933e-03 7.4294192065037208e-03 0.0000000000000000e+00  1.2342257028086778e-02 1.6884681537129018e-03 0.0000000000000000e+00  1.2821276580583631e-02 1.2229513269069207e-02 0.0000000000000000e+00  5.0974379807678209e-03 4.7374000927501913e-03 0.0000000000000000e+00  5.6326318823080382e-03 4.6008939695176918e-03 0.0000000000000000e+00  -1.1722848284477931e-01 -7.1656523159270491e-03 0.0000000000000000e+00  5.3893020590863750e-03 3.3069562167397561e-03 0.0000000000000000e+00  3.5342379433285329e-03 2.9077271735406581e-03 0.0000000000000000e+00  -1.2367649929718860e-01 -7.1372398118371913e-03 0.0000000000000000e+00  4.5272728409609169e-03 -1.2653721976747731e-01 0.0000000000000000e+00  4.6297189440436433e-03 4.4273248723237573e-03 0.0000000000000000e+00  5.2881804855195785e-03 4.7471446067254590e-03 0.0000000000000000e+00  1.3301755325836934e-03 4.6406979343142727e-03 0.0000000000000000e+00  1.4370059563031362e-03 -7.9228346074850672e-02 0.0000000000000000e+00  2.0255619897109256e-03 4.7677051649946331e-03 0.0000000000000000e+00  4.7347363572748822e-03 -1.0847898609628095e-01 0.0000000000000000e+00  4.8819734746566243e-03 7.6017312009925408e-03 0.0000000000000000e+00  5.2300773754542524e-03 5.0063878021960346e-03 0.0000000000000000e+00  4.7208716296004323e-03 5.5952809076203836e-03 0.0000000000000000e+00  6.8354389339090891e-03 5.7491989391092518e-03 0.0000000000000000e+00  3.7321642212935356e-03 5.9603868526201783e-03 0.0000000000000000e+00  -1.8823066876949623e-02 6.0523352967854962e-03 0.0000000000000000e+00  6.9520645993202262e-03 2.4511662570907882e-03 0.0000000000000000e+00  -6.2664599436652840e-02 -5.0372771758694732e-03 0.0000000000000000e+00  5.8760480487334591e-03 1.7463634835440722e-02 0.0000000000000000e+00  -8.0608643353938855e-04 -2.0948069956381113e-03 0.0000000000000000e+00  -2.5091130282228983e-03 3.3063340158763960e-04 0.0000000000000000e+00  1.2871377694238530e-03 -1.8991554002666527e-03 0.0000000000000000e+00  1.0719272953031011e-03 -2.1827766778429979e-03 0.0000000000000000e+00  1.5682826834823324e-03 1.6003817116157356e-03 0.0000000000000000e+00  -2.4217476955797151e-03 1.2371180136947256e-03 0.0000000000000000e+00  -1.1055380693150871e-01 8.9495418206583091e-02 0.0000000000000000e+00  -7.4710650180738636e-02 1.3844091994927110e-01 0.0000000000000000e+00  1.4510625588746612e-01 4.3045231756714340e-02 0.0000000000000000e+00  -7.6987253103250039e-02 -6.3287155028586978e-02 0.0000000000000000e+00  -2.3125406908674435e-02 1.1181024262731316e-01 0.0000000000000000e+00  1.0619838982888041e-01 -2.1894158758043031e-02 0.0000000000000000e+00  5.4939013845499235e-02 9.7333075534999989e-04 0.0000000000000000e+00  -2.4576321542272937e-02 -2.3464020149405965e-02 0.0000000000000000e+00  6.4907823367995443e-02 8.8416269586751292e-02 0.0000000000000000e+00  6.1586707997481102e-02 -2.0301524211787620e-02 0.0000000000000000e+00  5.9694748240728915e-02 -1.9748200061383763e-02 0.0000000000000000e+00  7.9534653060585270e-02 7.7680668590093871e-02 0.0000000000000000e+00  3.6454493595638546e-03 3.0916550372938539e-02 0.0000000000000000e+00  -1.5756519306769760e-03 -2.3181624485618651e-03 0.0000000000000000e+00  -6.9137574579456297e-04 2.9736969937722625e-03 0.0000000000000000e+00  -6.2972141012358122e-04 2.2305162604076462e-02 0.0000000000000000e+00  -5.0769784872235009e-04 4.1567705161806101e-03 0.0000000000000000e+00  -5.9872481512512671e-04 -5.2531936422429504e-04 0.0000000000000000e+00  3.1672888887949195e-03 -1.0826369071540258e-03 0.0000000000000000e+00  3.4356111708488566e-04 1.8397405766073000e-04 0.0000000000000000e+00  1.9182502686578746e-02 1.7988453070011120e-02 0.0000000000000000e+00  -9.5824349676636913e-03 2.4518682340405325e-02 0.0000000000000000e+00  -9.1124409048159668e-04 -8.4051168987019662e-04 0.0000000000000000e+00  -2.1750612079167245e-03 3.3190891160381824e-03 0.0000000000000000e+00  3.3909905621759980e-03 -9.4199626983506170e-04 0.0000000000000000e+00  -2.2003681125311036e-03 3.3977503297540250e-03 0.0000000000000000e+00  3.9186826500112189e-02 -2.2328831188688114e-02 0.0000000000000000e+00  -1.0296281280771842e-03 3.7336592218393215e-02 0.0000000000000000e+00  2.8956672390155050e-02 3.2731110068189152e-03 0.0000000000000000e+00  -2.1936048693975705e-03 3.2051463547289626e-03 0.0000000000000000e+00  -2.5308622341902249e-02 5.3955368618406115e-02 0.0000000000000000e+00  -2.4468504866942253e-02 5.0450393880833014e-02 0.0000000000000000e+00  -3.5592642468223481e-03 -2.5182871041557271e-02 0.0000000000000000e+00  5.3928619257806024e-02 -2.4221493596849931e-02 0.0000000000000000e+00  -1.3087750837425086e-02 -4.6664378699990553e-03 0.0000000000000000e+00  -1.3342392356859039e-02 -4.4261097302869413e-03 0.0000000000000000e+00  -4.1536939445791198e-03 -4.0698313514008433e-02 0.0000000000000000e+00  -1.3845677280518722e-02 -1.4046053413512059e-02 0.0000000000000000e+00  5.8993413187182807e-03 1.5476771746651351e-03 0.0000000000000000e+00  1.3673717625913926e-03 5.2005447566268563e-03 0.0000000000000000e+00  1.4311967401401567e-03 5.3550503693534689e-03 0.0000000000000000e+00  1.1387330739558341e-03 1.1756427588395523e-02 0.0000000000000000e+00  4.5453111742893359e-04 1.6914521088332399e-02 0.0000000000000000e+00  4.0747311914306073e-03 4.1903413812323567e-03 0.0000000000000000e+00  4.1563760961050265e-03 3.3948060436882985e-04 0.0000000000000000e+00  1.8437257257150714e-04 1.7555562479325739e-02 0.0000000000000000e+00  -2.0566417615604190e-03 3.7532520415929772e-03 0.0000000000000000e+00  2.3202874402260071e-02 -5.5229107679277396e-04 0.0000000000000000e+00  -2.0837995622709662e-03 3.7473675166869265e-03 0.0000000000000000e+00  -6.0974319907843412e-04 3.7475016221411215e-03 0.0000000000000000e+00  -5.3189741336091877e-04 -4.3802190843789590e-04 0.0000000000000000e+00  8.2910303142449508e-03 2.8980492427910930e-03 0.0000000000000000e+00  2.6859225870703410e-03 2.5138075588275952e-03 0.0000000000000000e+00  3.1986610785428226e-03 3.1393589012918008e-03 0.0000000000000000e+00  -9.0980768197958251e-03 -4.9477626062412166e-03 0.0000000000000000e+00  -5.1085865691087966e-03 -9.9854367584487937e-03 0.0000000000000000e+00  -4.3508445588455701e-02 -9.7611252972822898e-03 0.0000000000000000e+00  5.1949475535213990e-03 -1.8410562015773492e-02 0.0000000000000000e+00  9.6634304145214438e-03 5.5281269514095774e-03 0.0000000000000000e+00  9.6188370983576483e-03 5.5349986692616315e-03 0.0000000000000000e+00  -2.8668247210202839e-03 -1.9644611516054161e-04 0.0000000000000000e+00  4.0687180362603964e-03 4.0059453323909961e-03 0.0000000000000000e+00  1.8843036389828656e-02 -1.9603846221200962e-03 0.0000000000000000e+00  4.1118540973497878e-03 4.0728145675676900e-03 0.0000000000000000e+00  -3.2713765974959419e-03 -1.5193938800965350e-02 0.0000000000000000e+00  -1.4179812069850747e-02 1.5524257375276133e-03 0.0000000000000000e+00  -1.3630942051850455e-02 2.5974013845381223e-03 0.0000000000000000e+00  4.1964704873393311e-03 1.0044767871088628e-02 0.0000000000000000e+00  -3.5129709714864063e-03 9.9715789525878680e-03 0.0000000000000000e+00  3.8005390005033750e-03 8.1734488757267756e-03 0.0000000000000000e+00  3.5467335952880379e-03 -5.1242538982167376e-03 0.0000000000000000e+00  -4.1624459010845806e-02 -4.5314653724937088e-03 0.0000000000000000e+00  -3.8290876419180241e-03 -4.4378534323409559e-03 0.0000000000000000e+00  -5.8541829509672705e-03 -4.2616401255421970e-03 0.0000000000000000e+00  2.7797218526127996e-03 3.3480982249591367e-03 0.0000000000000000e+00  3.5479595545314696e-03 2.3337960291160767e-03 0.0000000000000000e+00  5.6640157453393940e-03 5.4150252715362036e-03 0.0000000000000000e+00  5.4525320200484390e-03 5.3415862653617115e-03 0.0000000000000000e+00  5.5009093149215576e-03 5.8502507796840209e-03 0.0000000000000000e+00  6.0353276144692021e-03 6.2197257316514440e-03 0.0000000000000000e+00  -1.4968524022825143e-02 -1.4960184622615214e-02 0.0000000000000000e+00  -1.5316282075874221e-02 -1.8125848376435841e-02 0.0000000000000000e+00  -1.4588158620370271e-02 1.7719541598715749e-02 0.0000000000000000e+00  2.1974157658553479e-04 -1.5750134947410076e-02 0.0000000000000000e+00  -1.5513310017125647e-02 -1.5221228556103956e-02 0.0000000000000000e+00  8.7593923560413262e-03 5.9811569491627628e-03 0.0000000000000000e+00  8.8414274176897411e-03 8.9336447792836750e-03 0.0000000000000000e+00  -2.0398122034094145e-03 -2.2825053300691619e-02 0.0000000000000000e+00  8.9534592299261515e-03 -1.9828348984677184e-03 0.0000000000000000e+00  9.1814086725636561e-03 5.7755227405961694e-03 0.0000000000000000e+00  5.6765480204459895e-03 5.7771833161701126e-03 0.0000000000000000e+00  9.3637660677211576e-03 9.3566533957766332e-03 0.0000000000000000e+00  6.1643471171572818e-03 8.7055342146970440e-03 0.0000000000000000e+00  8.8902401684611172e-03 6.0060822960260425e-03 0.0000000000000000e+00  8.8047474879461261e-03 6.0386740680779564e-03 0.0000000000000000e+00  6.0727281662895068e-03 8.9092147387770052e-03 0.0000000000000000e+00  8.6468340356401809e-03 5.9202856869220583e-03 0.0000000000000000e+00  1.8255071558236835e-03 -1.2909290280971307e-02 0.0000000000000000e+00  2.5661182880219462e-03 3.2219360433500426e-03 0.0000000000000000e+00  -1.2343111461171678e-02 5.3382535385538832e-03 0.0000000000000000e+00  1.9521029536547724e-03 6.2192430332095065e-03 0.0000000000000000e+00  -1.3940274165742757e-02 5.5476624547139064e-03 0.0000000000000000e+00  3.1283226031869333e-03 6.3923736486361125e-03 0.0000000000000000e+00  2.9470804099040251e-03 2.6897577757539217e-03 0.0000000000000000e+00  2.9926707915389787e-03 6.2403855845611714e-03 0.0000000000000000e+00  1.1434836798004191e-03 2.2875022677713583e-03 0.0000000000000000e+00  1.4616868309494464e-03 1.3259294421750253e-03 0.0000000000000000e+00  -1.8588122653742747e-03 4.1947513808995533e-03 0.0000000000000000e+00  4.4474341334104269e-03 1.1725087369700825e-03 0.0000000000000000e+00  -2.1790506212838443e-03 5.2058132296321042e-03 0.0000000000000000e+00  5.0783116465502381e-03 -1.5471432358162740e-03 0.0000000000000000e+00  8.8770059606543079e-04 -1.8803519452790039e-03 0.0000000000000000e+00  7.4747720667423195e-04 4.1790355411386419e-03 0.0000000000000000e+00  4.4862898841797937e-03 3.9627729963439143e-03 0.0000000000000000e+00  -1.1646780068155338e-02 -4.2875372785972834e-03 0.0000000000000000e+00  -2.0405527018584751e-02 2.0422843509821518e-02 0.0000000000000000e+00  -2.0540852878341981e-02 -1.5896989095482716e-02 0.0000000000000000e+00  -1.5490999722398072e-02 -1.4550689812352151e-02 0.0000000000000000e+00  8.1263231621717114e-03 -1.4500717937199325e-02 0.0000000000000000e+00  -2.2239419725846820e-02 -3.9247365598049895e-03 0.0000000000000000e+00  7.2572685659437553e-03 1.3354249870362286e-02 0.0000000000000000e+00  9.5822081701916501e-02 -1.2696502219261486e-02 0.0000000000000000e+00  9.1631299857834234e-02 8.7859251614443690e-02 0.0000000000000000e+00  -2.5060683485427188e-02 -2.4026800355472753e-02 0.0000000000000000e+00  8.9967940283769129e-02 -2.4506365876945956e-02 0.0000000000000000e+00  -6.7700007947725971e-04 -2.4975434356020083e-02 0.0000000000000000e+00  5.6437363305104687e-03 5.6612832267927240e-03 0.0000000000000000e+00  -2.3066892854074657e-02 8.5855323610090656e-02 0.0000000000000000e+00  -2.4177965063011547e-02 8.5679242133614539e-02 0.0000000000000000e+00  5.6762099062227268e-03 5.4722123446337605e-03 0.0000000000000000e+00  -3.0113586617430740e-03 -3.1296669262519561e-04 0.0000000000000000e+00  9.1596144268024204e-02 9.2963784038767525e-02 0.0000000000000000e+00  -1.0091028828668075e-02 1.0055608650591610e-01 0.0000000000000000e+00  9.9307688538469677e-02 9.8751236418250884e-02 0.0000000000000000e+00  9.4228989153936016e-02 9.2964374951309173e-02 0.0000000000000000e+00  -1.9818007121757780e-02 8.9819284630667240e-02 0.0000000000000000e+00  -3.6776113413755022e-04 2.6089083100072945e-02 0.0000000000000000e+00  5.2683263487120725e-03 -3.2374223704476975e-03 0.0000000000000000e+00  -2.0330803193213225e-02 -2.1732195558645619e-02 0.0000000000000000e+00  7.2642610533934879e-02 -2.1662331244551261e-02 0.0000000000000000e+00  -2.2337159077638256e-02 8.7864485587041921e-02 0.0000000000000000e+00  3.8953131926923409e-03 -1.8913826977713651e-02 0.0000000000000000e+00  -2.2037606429140454e-02 8.6341619491329555e-02 0.0000000000000000e+00  -5.6227053736009870e-02 -4.8218628932047751e-02 0.0000000000000000e+00  9.2395869563684729e-02 -6.1763198452574150e-02 0.0000000000000000e+00  3.1624429166982838e-03 -6.5981498834474725e-02 0.0000000000000000e+00  -7.2701978642045778e-02 9.3663243910585073e-02 0.0000000000000000e+00  -7.1269599699470207e-02 9.2049393003596519e-02 0.0000000000000000e+00  -1.8319596615797778e-02 9.4290397186861288e-02 0.0000000000000000e+00  9.4400619461139659e-02 9.4831962458987923e-02 0.0000000000000000e+00  9.6293595019390971e-02 9.7157238209199595e-02 0.0000000000000000e+00  9.7231555269351719e-02 -2.0652445221926545e-02 0.0000000000000000e+00  -3.3427742626014792e-02 1.0266666103764722e-01 0.0000000000000000e+00  -3.7001123145123320e-02 -2.7295013873231140e-02 0.0000000000000000e+00  -7.2273512200211165e-02 3.4386068723613210e-02 0.0000000000000000e+00  -7.0338575064671033e-02 3.2182895472427885e-02 0.0000000000000000e+00  9.1356451483387384e-03 5.2325609781577402e-02 0.0000000000000000e+00  -8.8707479310330517e-02 -9.1443538838243604e-02 0.0000000000000000e+00  5.3955915965631443e-02 4.6553287228649334e-02 0.0000000000000000e+00  -4.3346452379671739e-02 -1.9128770636237099e-03 0.0000000000000000e+00  3.3443624670980590e-03 -8.6773671179141327e-04 0.0000000000000000e+00  -2.6427390619008311e-03 3.2349837658105112e-03 0.0000000000000000e+00  -2.5907583533344484e-03 -9.9313301291323233e-04 0.0000000000000000e+00  2.1257347601695560e-03 2.4114533728475996e-03 0.0000000000000000e+00  2.5421830540970167e-02 -1.5621281719418992e-03 0.0000000000000000e+00  4.0838411395838507e-04 3.7502213634287452e-04 0.0000000000000000e+00  1.9070795997441043e-03 -6.6469113667725301e-05 0.0000000000000000e+0