<?xml version="1.0"?>
<VTKFile type="UnstructuredGrid"  version="0.1"  >
<UnstructuredGrid>
<Piece  NumberOfPoints="16275" NumberOfCells="32468">
<Points>
<DataArray  type="Float64"  NumberOfComponents="3"  format="ascii">-0.5 0.5 0  0.5 0.5 0  0.5 -0.5 0  -0.5 -0.5 0  -1 1 0  1 1 0  1 -1 0  -1 -1 0  -0.4900000000000277 0.5 0  -0.4800000000000555 0.5 0  -0.4700000000000832 0.5 0  -0.4600000000001109 0.5 0  -0.4500000000001387 0.5 0  -0.4400000000001664 0.5 0  -0.4300000000001942 0.5 0  -0.4200000000002219 0.5 0  -0.4100000000002497 0.5 0  -0.4000000000002774 0.5 0  -0.3900000000003052 0.5 0  -0.3800000000003328 0.5 0  -0.3700000000003606 0.5 0  -0.3600000000003883 0.5 0  -0.3500000000004161 0.5 0  -0.3400000000004438 0.5 0  -0.3300000000004716 0.5 0  -0.3200000000004993 0.5 0  -0.3100000000005271 0.5 0  -0.3000000000005548 0.5 0  -0.2900000000005825 0.5 0  -0.2800000000006103 0.5 0  -0.2700000000006381 0.5 0  -0.2600000000006658 0.5 0  -0.2500000000006935 0.5 0  -0.2400000000007212 0.5 0  -0.230000000000749 0.5 0  -0.2200000000007767 0.5 0  -0.2100000000008044 0.5 0  -0.2000000000008322 0.5 0  -0.19000000000086 0.5 0  -0.1800000000008877 0.5 0  -0.1700000000009154 0.5 0  -0.1600000000009431 0.5 0  -0.1500000000009709 0.5 0  -0.1400000000009986 0.5 0  -0.1300000000010264 0.5 0  -0.1200000000010541 0.5 0  -0.1100000000010818 0.5 0  -0.1000000000011096 0.5 0  -0.09000000000113734 0.5 0  -0.08000000000116503 0.5 0  -0.07000000000119283 0.5 0  -0.06000000000122058 0.5 0  -0.05000000000124827 0.5 0  -0.04000000000127607 0.5 0  -0.03000000000130376 0.5 0  -0.02000000000133151 0.5 0  -0.01000000000135925 0.5 0  -1.376121439022882e-12 0.5 0  0.009999999998640763 0.5 0  0.01999999999866864 0.5 0  0.02999999999869629 0.5 0  0.03999999999872406 0.5 0  0.04999999999875182 0.5 0  0.05999999999877947 0.5 0  0.06999999999880724 0.5 0  0.079999999998835 0.5 0  0.08999999999886266 0.5 0  0.09999999999889042 0.5 0  0.1099999999989182 0.5 0  0.1199999999989459 0.5 0  0.1299999999989737 0.5 0  0.1399999999990014 0.5 0  0.1499999999990291 0.5 0  0.1599999999990568 0.5 0  0.1699999999990847 0.5 0  0.1799999999991124 0.5 0  0.1899999999991401 0.5 0  0.1999999999991678 0.5 0  0.2099999999991955 0.5 0  0.2199999999992234 0.5 0  0.2299999999992511 0.5 0  0.2399999999992788 0.5 0  0.2499999999993066 0.5 0  0.2599999999993342 0.5 0  0.269999999999362 0.5 0  0.2799999999993897 0.5 0  0.2899999999994175 0.5 0  0.2999999999994452 0.5 0  0.3099999999994729 0.5 0  0.3199999999995007 0.5 0  0.3299999999995284 0.5 0  0.3399999999995562 0.5 0  0.3499999999995839 0.5 0  0.3599999999996116 0.5 0  0.3699999999996393 0.5 0  0.379999999999667 0.5 0  0.3899999999996949 0.5 0  0.3999999999997226 0.5 0  0.4099999999997503 0.5 0  0.419999999999778 0.5 0  0.4299999999998058 0.5 0  0.4399999999998336 0.5 0  0.4499999999998613 0.5 0  0.4599999999998891 0.5 0  0.4699999999999167 0.5 0  0.4799999999999445 0.5 0  0.4899999999999722 0.5 0  0.5 0.4900000000000277 0  0.5 0.4800000000000555 0  0.5 0.4700000000000832 0  0.5 0.4600000000001109 0  0.5 0.4500000000001387 0  0.5 0.4400000000001664 0  0.5 0.4300000000001942 0  0.5 0.4200000000002219 0  0.5 0.4100000000002497 0  0.5 0.4000000000002774 0  0.5 0.3900000000003052 0  0.5 0.3800000000003328 0  0.5 0.3700000000003606 0  0.5 0.3600000000003883 0  0.5 0.3500000000004161 0  0.5 0.3400000000004438 0  0.5 0.3300000000004716 0  0.5 0.3200000000004993 0  0.5 0.3100000000005271 0  0.5 0.3000000000005548 0  0.5 0.2900000000005825 0  0.5 0.2800000000006103 0  0.5 0.2700000000006381 0  0.5 0.2600000000006658 0  0.5 0.2500000000006935 0  0.5 0.2400000000007212 0  0.5 0.230000000000749 0  0.5 0.2200000000007767 0  0.5 0.2100000000008044 0  0.5 0.2000000000008322 0  0.5 0.19000000000086 0  0.5 0.1800000000008877 0  0.5 0.1700000000009154 0  0.5 0.1600000000009431 0  0.5 0.1500000000009709 0  0.5 0.1400000000009986 0  0.5 0.1300000000010264 0  0.5 0.1200000000010541 0  0.5 0.1100000000010818 0  0.5 0.1000000000011096 0  0.5 0.09000000000113734 0  0.5 0.08000000000116503 0  0.5 0.07000000000119283 0  0.5 0.06000000000122058 0  0.5 0.05000000000124827 0  0.5 0.04000000000127607 0  0.5 0.03000000000130376 0  0.5 0.02000000000133151 0  0.5 0.01000000000135925 0  0.5 1.376121439022882e-12 0  0.5 -0.009999999998640763 0  0.5 -0.01999999999866864 0  0.5 -0.02999999999869629 0  0.5 -0.03999999999872406 0  0.5 -0.04999999999875182 0  0.5 -0.05999999999877947 0  0.5 -0.06999999999880724 0  0.5 -0.079999999998835 0  0.5 -0.08999999999886266 0  0.5 -0.09999999999889042 0  0.5 -0.1099999999989182 0  0.5 -0.1199999999989459 0  0.5 -0.1299999999989737 0  0.5 -0.1399999999990014 0  0.5 -0.1499999999990291 0  0.5 -0.1599999999990568 0  0.5 -0.1699999999990847 0  0.5 -0.1799999999991124 0  0.5 -0.1899999999991401 0  0.5 -0.1999999999991678 0  0.5 -0.2099999999991955 0  0.5 -0.2199999999992234 0  0.5 -0.2299999999992511 0  0.5 -0.2399999999992788 0  0.5 -0.2499999999993066 0  0.5 -0.2599999999993342 0  0.5 -0.269999999999362 0  0.5 -0.2799999999993897 0  0.5 -0.2899999999994175 0  0.5 -0.2999999999994452 0  0.5 -0.3099999999994729 0  0.5 -0.3199999999995007 0  0.5 -0.3299999999995284 0  0.5 -0.3399999999995562 0  0.5 -0.3499999999995839 0  0.5 -0.3599999999996116 0  0.5 -0.3699999999996393 0  0.5 -0.379999999999667 0  0.5 -0.3899999999996949 0  0.5 -0.3999999999997226 0  0.5 -0.4099999999997503 0  0.5 -0.419999999999778 0  0.5 -0.4299999999998058 0  0.5 -0.4399999999998336 0  0.5 -0.4499999999998613 0  0.5 -0.4599999999998891 0  0.5 -0.4699999999999167 0  0.5 -0.4799999999999445 0  0.5 -0.4899999999999722 0  0.4900000000000277 -0.5 0  0.4800000000000555 -0.5 0  0.4700000000000832 -0.5 0  0.4600000000001109 -0.5 0  0.4500000000001387 -0.5 0  0.4400000000001664 -0.5 0  0.4300000000001942 -0.5 0  0.4200000000002219 -0.5 0  0.4100000000002497 -0.5 0  0.4000000000002774 -0.5 0  0.3900000000003052 -0.5 0  0.3800000000003328 -0.5 0  0.3700000000003606 -0.5 0  0.3600000000003883 -0.5 0  0.3500000000004161 -0.5 0  0.3400000000004438 -0.5 0  0.3300000000004716 -0.5 0  0.3200000000004993 -0.5 0  0.3100000000005271 -0.5 0  0.3000000000005548 -0.5 0  0.2900000000005825 -0.5 0  0.2800000000006103 -0.5 0  0.2700000000006381 -0.5 0  0.2600000000006658 -0.5 0  0.2500000000006935 -0.5 0  0.2400000000007212 -0.5 0  0.230000000000749 -0.5 0  0.2200000000007767 -0.5 0  0.2100000000008044 -0.5 0  0.2000000000008322 -0.5 0  0.19000000000086 -0.5 0  0.1800000000008877 -0.5 0  0.1700000000009154 -0.5 0  0.1600000000009431 -0.5 0  0.1500000000009709 -0.5 0  0.1400000000009986 -0.5 0  0.1300000000010264 -0.5 0  0.1200000000010541 -0.5 0  0.1100000000010818 -0.5 0  0.1000000000011096 -0.5 0  0.09000000000113734 -0.5 0  0.08000000000116503 -0.5 0  0.07000000000119283 -0.5 0  0.06000000000122058 -0.5 0  0.05000000000124827 -0.5 0  0.04000000000127607 -0.5 0  0.03000000000130376 -0.5 0  0.02000000000133151 -0.5 0  0.01000000000135925 -0.5 0  1.376121439022882e-12 -0.5 0  -0.009999999998640763 -0.5 0  -0.01999999999866864 -0.5 0  -0.02999999999869629 -0.5 0  -0.03999999999872406 -0.5 0  -0.04999999999875182 -0.5 0  -0.05999999999877947 -0.5 0  -0.06999999999880724 -0.5 0  -0.079999999998835 -0.5 0  -0.08999999999886266 -0.5 0  -0.09999999999889042 -0.5 0  -0.1099999999989182 -0.5 0  -0.1199999999989459 -0.5 0  -0.1299999999989737 -0.5 0  -0.1399999999990014 -0.5 0  -0.1499999999990291 -0.5 0  -0.1599999999990568 -0.5 0  -0.1699999999990847 -0.5 0  -0.1799999999991124 -0.5 0  -0.1899999999991401 -0.5 0  -0.1999999999991678 -0.5 0  -0.2099999999991955 -0.5 0  -0.2199999999992234 -0.5 0  -0.2299999999992511 -0.5 0  -0.2399999999992788 -0.5 0  -0.2499999999993066 -0.5 0  -0.2599999999993342 -0.5 0  -0.269999999999362 -0.5 0  -0.2799999999993897 -0.5 0  -0.2899999999994175 -0.5 0  -0.2999999999994452 -0.5 0  -0.3099999999994729 -0.5 0  -0.3199999999995007 -0.5 0  -0.3299999999995284 -0.5 0  -0.3399999999995562 -0.5 0  -0.3499999999995839 -0.5 0  -0.3599999999996116 -0.5 0  -0.3699999999996393 -0.5 0  -0.379999999999667 -0.5 0  -0.3899999999996949 -0.5 0  -0.3999999999997226 -0.5 0  -0.4099999999997503 -0.5 0  -0.419999999999778 -0.5 0  -0.4299999999998058 -0.5 0  -0.4399999999998336 -0.5 0  -0.4499999999998613 -0.5 0  -0.4599999999998891 -0.5 0  -0.4699999999999167 -0.5 0  -0.4799999999999445 -0.5 0  -0.4899999999999722 -0.5 0  -0.5 -0.4900000000000277 0  -0.5 -0.4800000000000555 0  -0.5 -0.4700000000000832 0  -0.5 -0.4600000000001109 0  -0.5 -0.4500000000001387 0  -0.5 -0.4400000000001664 0  -0.5 -0.4300000000001942 0  -0.5 -0.4200000000002219 0  -0.5 -0.4100000000002497 0  -0.5 -0.4000000000002774 0  -0.5 -0.3900000000003052 0  -0.5 -0.3800000000003328 0  -0.5 -0.3700000000003606 0  -0.5 -0.3600000000003883 0  -0.5 -0.3500000000004161 0  -0.5 -0.3400000000004438 0  -0.5 -0.3300000000004716 0  -0.5 -0.3200000000004993 0  -0.5 -0.3100000000005271 0  -0.5 -0.3000000000005548 0  -0.5 -0.2900000000005825 0  -0.5 -0.2800000000006103 0  -0.5 -0.2700000000006381 0  -0.5 -0.2600000000006658 0  -0.5 -0.2500000000006935 0  -0.5 -0.2400000000007212 0  -0.5 -0.230000000000749 0  -0.5 -0.2200000000007767 0  -0.5 -0.2100000000008044 0  -0.5 -0.2000000000008322 0  -0.5 -0.19000000000086 0  -0.5 -0.1800000000008877 0  -0.5 -0.1700000000009154 0  -0.5 -0.1600000000009431 0  -0.5 -0.1500000000009709 0  -0.5 -0.1400000000009986 0  -0.5 -0.1300000000010264 0  -0.5 -0.1200000000010541 0  -0.5 -0.1100000000010818 0  -0.5 -0.1000000000011096 0  -0.5 -0.09000000000113734 0  -0.5 -0.08000000000116503 0  -0.5 -0.07000000000119283 0  -0.5 -0.06000000000122058 0  -0.5 -0.05000000000124827 0  -0.5 -0.04000000000127607 0  -0.5 -0.03000000000130376 0  -0.5 -0.02000000000133151 0  -0.5 -0.01000000000135925 0  -0.5 -1.376121439022882e-12 0  -0.5 0.009999999998640763 0  -0.5 0.01999999999866864 0  -0.5 0.02999999999869629 0  -0.5 0.03999999999872406 0  -0.5 0.04999999999875182 0  -0.5 0.05999999999877947 0  -0.5 0.06999999999880724 0  -0.5 0.079999999998835 0  -0.5 0.08999999999886266 0  -0.5 0.09999999999889042
[...]
<PointData  Vectors="f_58-0"> 
<DataArray  type="Float64"  Name="f_58-0"  NumberOfComponents="3" format="ascii">3.5478561037675424e-02 -2.4874546017127096e-02 0.0000000000000000e+00  -4.0411591587049076e-03 6.8985671547470692e-02 0.0000000000000000e+00  -1.4416047182189851e-03 8.9939998039903490e-04 0.0000000000000000e+00  4.2534002333012907e-03 -1.3031257441047349e-02 0.0000000000000000e+00  1.3468801208764107e-02 0.0000000000000000e+00 0.0000000000000000e+00  2.6292773050925707e-02 0.0000000000000000e+00 0.0000000000000000e+00  3.9718042366852571e-03 0.0000000000000000e+00 0.0000000000000000e+00  -6.1794705505900651e-03 0.0000000000000000e+00 0.0000000000000000e+00  -2.7626911388064321e-02 2.3633394650610165e-01 0.0000000000000000e+00  -2.5103106201662003e-02 3.0205641545695616e-02 0.0000000000000000e+00  -1.3372130749848251e-02 1.7697201656497480e-01 0.0000000000000000e+00  -2.1009206922002584e-02 2.6512287304939673e-02 0.0000000000000000e+00  2.2274964416780653e-02 -1.5701090022398299e-02 0.0000000000000000e+00  5.0536990412493828e-02 -1.0567482938060264e-02 0.0000000000000000e+00  6.5930775974207198e-02 -1.8656034963249205e-02 0.0000000000000000e+00  -1.4851561347454145e-02 9.1858005208163424e-03 0.0000000000000000e+00  -4.5397320195486202e-02 2.3509467046976245e-02 0.0000000000000000e+00  3.3684830278480932e-02 -1.7689960351397201e-02 0.0000000000000000e+00  -1.5819204378087804e-02 3.3749214898021351e-02 0.0000000000000000e+00  -1.7466171550388380e-02 3.0143987507161997e-02 0.0000000000000000e+00  3.0742321712061989e-02 6.9009932982347422e-02 0.0000000000000000e+00  4.6121557760496833e-02 -1.4808181121457048e-02 0.0000000000000000e+00  -5.7568054961954301e-02 3.3555379703546558e-02 0.0000000000000000e+00  1.6136211059231690e-02 2.2546853974492104e-02 0.0000000000000000e+00  1.1792225971879372e-02 3.1707881633599881e-02 0.0000000000000000e+00  8.1097918679721420e-03 1.1026677914353342e-02 0.0000000000000000e+00  2.3331395351749436e-02 2.3838926904875966e-02 0.0000000000000000e+00  2.0971387243617291e-02 4.2096303664412665e-02 0.0000000000000000e+00  2.2081857526848100e-02 -1.5301261655829911e-02 0.0000000000000000e+00  -2.0164777672159094e-02 1.1947963133115736e-02 0.0000000000000000e+00  4.1870341868827021e-03 2.7452327078855677e-03 0.0000000000000000e+00  4.1476760235841931e-02 -6.2907975068757956e-03 0.0000000000000000e+00  -6.3315414431460966e-03 5.2058610866313387e-02 0.0000000000000000e+00  -4.3395008683281659e-03 -5.3195534008252440e-03 0.0000000000000000e+00  -1.5718434398548951e-02 1.2415896199593516e-02 0.0000000000000000e+00  -1.5576683776445976e-02 -1.5526063543111335e-02 0.0000000000000000e+00  -1.0381062470070713e-02 -9.4368478438883567e-03 0.0000000000000000e+00  -3.5203863525312558e-03 -1.2985826898584532e-02 0.0000000000000000e+00  1.8242816202509629e-01 -2.8267836959194612e-03 0.0000000000000000e+00  1.1339015527042313e-02 -1.3960849174581232e-02 0.0000000000000000e+00  -1.3425861662279321e-02 -3.5162570671672306e-03 0.0000000000000000e+00  -1.2034058885111172e-02 1.8157748451808628e-01 0.0000000000000000e+00  -1.2748089322077204e-02 -3.9048808501305318e-03 0.0000000000000000e+00  -3.6602929512323601e-03 -2.8167865125871372e-03 0.0000000000000000e+00  -2.9726007594537791e-03 1.7040659077483428e-01 0.0000000000000000e+00  1.0782917360663337e-02 -1.1464247219612709e-02 0.0000000000000000e+00  -1.1274251603010047e-02 -1.1964543914036636e-02 0.0000000000000000e+00  -4.2412471139155585e-03 1.6700337951301697e-01 0.0000000000000000e+00  -1.1711307193358684e-02 -1.1787548220765203e-02 0.0000000000000000e+00  -2.4782511025224579e-02 -3.6745594864157076e-03 0.0000000000000000e+00  -8.8823862652362873e-04 -4.9814334283634510e-03 0.0000000000000000e+00  -2.2798672379164910e-02 -1.0845033591291391e-02 0.0000000000000000e+00  -5.8361008488758883e-03 -5.9696935202104267e-03 0.0000000000000000e+00  -2.5045389611052203e-02 -9.4108222991093338e-04 0.0000000000000000e+00  4.1894709897047480e-02 -4.1459521041352417e-03 0.0000000000000000e+00  4.4081402038774621e-02 -2.4094232700911503e-02 0.0000000000000000e+00  -2.9868743343494340e-03 -2.3741419484830908e-02 0.0000000000000000e+00  -1.0435231131601587e-02 -1.7666677837858042e-02 0.0000000000000000e+00  -1.9855048107316288e-02 -4.5389785981090822e-04 0.0000000000000000e+00  -5.0896807691143426e-03 -2.1356373665416793e-02 0.0000000000000000e+00  6.1555960170936895e-03 1.4939323637384234e-03 0.0000000000000000e+00  9.5047050564035767e-03 -3.9369100370364408e-03 0.0000000000000000e+00  -3.7467380421017968e-03 -1.9704225172375179e-03 0.0000000000000000e+00  -4.4080105582291786e-03 -2.1695520373196469e-03 0.0000000000000000e+00  2.0414321884921663e-01 -2.3058482858631492e-03 0.0000000000000000e+00  9.6495415051916378e-03 -2.5109468976149294e-03 0.0000000000000000e+00  -6.3253454357048971e-03 -4.5867005068834085e-03 0.0000000000000000e+00  -5.5034770239952638e-03 1.6620220711312325e-01 0.0000000000000000e+00  5.5001146932420766e-02 -1.3160587398071379e-02 0.0000000000000000e+00  -1.7077980076042987e-02 -1.6545894063049207e-02 0.0000000000000000e+00  -1.8407722589515933e-03 -2.2023201371331315e-03 0.0000000000000000e+00  -1.7398139215912701e-03 4.6751288804384838e-02 0.0000000000000000e+00  -2.5233992870898250e-03 -1.6186101844790190e-03 0.0000000000000000e+00  -4.5147052697877884e-03 9.1737828409081661e-03 0.0000000000000000e+00  -4.7780108137637622e-03 2.2108146398603767e-04 0.0000000000000000e+00  -1.3901616916928650e-02 3.7638138206892248e-02 0.0000000000000000e+00  9.3742044978136329e-03 9.6248342325767847e-03 0.0000000000000000e+00  4.3973221381090289e-03 -8.1701150209638094e-04 0.0000000000000000e+00  2.5174137028817088e-04 -6.0543485651510780e-05 0.0000000000000000e+00  -4.9163882609587258e-03 -9.9493835125233614e-04 0.0000000000000000e+00  -5.2433739107212978e-03 -2.4927311219799164e-03 0.0000000000000000e+00  1.7035750460613278e-01 9.2019071836076799e-03 0.0000000000000000e+00  -5.8704385498667844e-04 -6.6551769188138900e-04 0.0000000000000000e+00  -7.0526519120264041e-03 -7.3921592533286277e-03 0.0000000000000000e+00  -1.1527824667087095e-02 -2.0394185464743986e-03 0.0000000000000000e+00  -1.1949592504631472e-02 -1.1320456121732971e-02 0.0000000000000000e+00  -2.6461664343678877e-03 -2.3508858229039217e-03 0.0000000000000000e+00  -7.2541067097875601e-03 -2.0159748065249174e-03 0.0000000000000000e+00  1.3090315572835462e-01 8.3318738125762043e-03 0.0000000000000000e+00  -7.0769618233097161e-03 -1.1588062654467371e-03 0.0000000000000000e+00  -1.1279685902766494e-03 -8.9262042399394998e-04 0.0000000000000000e+00  1.3641540857434031e-01 8.2598563060533644e-03 0.0000000000000000e+00  -6.3416642996629745e-03 1.3873780713783840e-01 0.0000000000000000e+00  -4.6621132331185174e-03 -4.4110769666109995e-03 0.0000000000000000e+00  -5.5200882506013065e-03 -5.0606707476308190e-03 0.0000000000000000e+00  1.5814225667826892e-03 -6.5735293274396013e-03 0.0000000000000000e+00  1.8009016285526255e-03 9.5230072478947825e-02 0.0000000000000000e+00  9.9101891342313593e-04 -6.6752913031236068e-03 0.0000000000000000e+00  -6.6593881618182095e-03 1.2106270406879191e-01 0.0000000000000000e+00  -6.7583623770320293e-03 -4.5855570027228043e-03 0.0000000000000000e+00  -1.8234667106653618e-03 -6.4098034348104814e-03 0.0000000000000000e+00  -6.1043565958821787e-03 -2.2968576312062693e-03 0.0000000000000000e+00  -4.2732639753164155e-03 -2.8794656534532719e-03 0.0000000000000000e+00  -4.2178640199574107e-03 -3.3080483653434010e-03 0.0000000000000000e+00  2.1560206655322073e-02 -3.1073010074006658e-03 0.0000000000000000e+00  -4.2545103608525011e-03 -2.9852234007501691e-03 0.0000000000000000e+00  8.0004962389474937e-02 6.2220724735882341e-03 0.0000000000000000e+00  8.9646420912598349e-04 -2.3112660760412664e-03 0.0000000000000000e+00  2.3034250831118130e-03 -4.7413390507662330e-04 0.0000000000000000e+00  -3.0389197365974889e-04 3.0155921812546147e-03 0.0000000000000000e+00  3.6319289865104371e-03 -3.8715747627322567e-04 0.0000000000000000e+00  3.6839758649563018e-03 -3.9095406110939424e-04 0.0000000000000000e+00  2.8197082121624063e-03 2.8527911803271182e-03 0.0000000000000000e+00  1.6281943451620096e-03 3.2527685808078338e-03 0.0000000000000000e+00  -1.3804010933863489e-02 7.5654249775391619e-03 0.0000000000000000e+00  1.5627059877236796e-02 1.2246350243787126e-02 0.0000000000000000e+00  1.2831020305639453e-02 -7.4704337830562906e-02 0.0000000000000000e+00  1.6433587568881192e-02 1.6873648678693204e-02 0.0000000000000000e+00  2.4557752951317180e-02 8.8379507032875452e-03 0.0000000000000000e+00  7.8493812960980791e-03 2.3740939126198981e-02 0.0000000000000000e+00  2.9314941692552502e-03 4.3110631139674054e-04 0.0000000000000000e+00  2.4365180713262616e-02 2.3892884188581064e-02 0.0000000000000000e+00  3.1962626581614854e-03 5.6751419985452958e-03 0.0000000000000000e+00  3.0987288477152125e-03 2.4354140814347940e-02 0.0000000000000000e+00  3.0373297176022659e-03 2.3886798312499988e-02 0.0000000000000000e+00  4.4043165231712617e-03 4.4140796350603060e-03 0.0000000000000000e+00  2.9697302786601317e-03 -8.6023745833988981e-03 0.0000000000000000e+00  -1.0712865322750681e-03 1.5238311701150063e-03 0.0000000000000000e+00  -2.8606486271755445e-04 2.6028817234158841e-03 0.0000000000000000e+00  -3.6948263593763672e-04 -1.7658645831632605e-03 0.0000000000000000e+00  -1.9154349227460538e-04 3.3807960007275692e-04 0.0000000000000000e+00  -2.2090961710663926e-04 -1.0611965072252188e-04 0.0000000000000000e+00  1.8474920699194991e-03 -6.5315214842643320e-04 0.0000000000000000e+00  -1.4310977841251477e-04 2.0984200852022447e-05 0.0000000000000000e+00  6.7603057920289124e-03 6.9435876043843943e-03 0.0000000000000000e+00  -6.4011276663794719e-03 5.9035395580240620e-03 0.0000000000000000e+00  -7.1746896099196544e-04 -6.9188934101048309e-04 0.0000000000000000e+00  1.6284451635580773e-03 1.7256963747531631e-03 0.0000000000000000e+00  1.7252970147238521e-03 -8.1515747153952482e-04 0.0000000000000000e+00  1.6280253507201074e-03 1.7935179504361401e-03 0.0000000000000000e+00  3.8451331392717510e-03 2.1374344396733733e-02 0.0000000000000000e+00  -1.8034155393361447e-02 4.0988632603671717e-03 0.0000000000000000e+00  -6.9988385977161173e-03 2.6036484850700571e-03 0.0000000000000000e+00  1.5913859995068003e-03 2.5753280390303848e-03 0.0000000000000000e+00  2.1575492766954557e-02 2.5301160965203236e-03 0.0000000000000000e+00  2.1034393265390177e-02 2.7942118643065061e-03 0.0000000000000000e+00  8.2323665329611705e-04 2.1572744863154896e-02 0.0000000000000000e+00  2.5745243947217760e-03 2.1127051249089812e-02 0.0000000000000000e+00  2.1075477790872738e-02 9.4218547313319398e-03 0.0000000000000000e+00  2.1117434734886510e-02 9.4928245548643528e-03 0.0000000000000000e+00  9.5466598624536977e-03 3.3433154056898944e-02 0.0000000000000000e+00  2.1328289862958268e-02 2.1239234863266149e-02 0.0000000000000000e+00  -1.7330965125491237e-03 -2.1222123883684382e-04 0.0000000000000000e+00  -1.7501046931465460e-04 -1.0576027025040531e-03 0.0000000000000000e+00  -2.4307271183725276e-04 -1.1952604289169101e-03 0.0000000000000000e+00  -3.4287806996723645e-04 5.8789118097501945e-03 0.0000000000000000e+00  -5.6920099297514109e-04 1.7476993271407612e-03 0.0000000000000000e+00  4.6088763417645711e-04 2.7228070829139837e-04 0.0000000000000000e+00  3.1281779677866123e-04 -7.7499127014405301e-04 0.0000000000000000e+00  -7.4124807394049773e-04 1.0965424105880053e-03 0.0000000000000000e+00  1.6273733166630995e-03 1.4065009081071578e-03 0.0000000000000000e+00  -3.1474343984078321e-03 -1.0662261618934292e-03 0.0000000000000000e+00  1.6229106315821962e-03 1.2408722154625285e-03 0.0000000000000000e+00  -1.0230264589274514e-03 1.1782766917618828e-03 0.0000000000000000e+00  -9.9682705948539972e-04 -9.9387904270097256e-04 0.0000000000000000e+00  -3.5916932565806031e-03 8.0530210170917660e-06 0.0000000000000000e+00  5.2992651093865424e-05 9.6446223207966898e-05 0.0000000000000000e+00  -9.6354784410931059e-05 -5.6784368297248429e-05 0.0000000000000000e+00  2.0399904997805196e-02 8.2690071997195986e-03 0.0000000000000000e+00  8.0905881931907439e-03 2.0784290939138271e-02 0.0000000000000000e+00  3.8657914367552185e-02 2.0701308975812571e-02 0.0000000000000000e+00  -1.2595261692786670e-03 3.3537794274706233e-02 0.0000000000000000e+00  -3.1457051636635453e-03 -1.6601739422255554e-03 0.0000000000000000e+00  -3.0968301026308813e-03 -1.5771206404590517e-03 0.0000000000000000e+00  9.1269778557041548e-03 8.9168345525620848e-03 0.0000000000000000e+00  4.5210060052312817e-04 5.9500759076437561e-04 0.0000000000000000e+00  -1.9827672033309509e-04 1.6376032818352150e-03 0.0000000000000000e+00  3.6021701035221509e-04 4.5633312758171056e-04 0.0000000000000000e+00  1.5089837649071014e-06 2.1697296398932864e-02 0.0000000000000000e+00  2.1572400879733757e-02 8.8196778898844107e-03 0.0000000000000000e+00  2.1475062979711114e-02 8.7992502363985134e-03 0.0000000000000000e+00  -6.9589630476508436e-04 -4.3652979395443778e-03 0.0000000000000000e+00  7.5411212103301687e-04 -3.8363376276146733e-03 0.0000000000000000e+00  -3.5383515072240530e-04 -3.3517326070996219e-03 0.0000000000000000e+00  -2.6837455606625038e-04 2.0559154461962235e-02 0.0000000000000000e+00  3.7336096154189820e-02 7.6072379079813500e-03 0.0000000000000000e+00  8.7680135516554321e-04 7.4329430571151052e-03 0.0000000000000000e+00  1.8863679522541942e-02 5.9152272127949834e-03 0.0000000000000000e+00  8.8407845618231635e-03 -4.3312835827593200e-04 0.0000000000000000e+00  -4.4117712802720522e-04 9.5145621350290945e-03 0.0000000000000000e+00  4.1492292825210386e-03 4.5505568634500023e-03 0.0000000000000000e+00  -1.5540721804923993e-03 -1.4989689228520385e-03 0.0000000000000000e+00  -1.6716308516626431e-03 3.8430640871064377e-03 0.0000000000000000e+00  3.6491776059456331e-03 3.5217463568854076e-03 0.0000000000000000e+00  -6.6457684579558640e-04 -6.4972715816978902e-04 0.0000000000000000e+00  -6.3349619174256008e-04 -6.0416983177213543e-04 0.0000000000000000e+00  -6.3663619557253678e-04 -3.8478370139500423e-04 0.0000000000000000e+00  -3.8954100496645452e-03 -6.2159611721216909e-04 0.0000000000000000e+00  -6.0104890901129665e-04 -6.1033648634464463e-04 0.0000000000000000e+00  -1.3987533785724854e-03 -1.5960501880850093e-03 0.0000000000000000e+00  -1.6599241597045466e-03 -1.7900607521119149e-03 0.0000000000000000e+00  1.7827869912035858e-03 3.6898039749044681e-02 0.0000000000000000e+00  -2.1372710326067290e-03 1.7456487829996667e-03 0.0000000000000000e+00  -2.4268841326528239e-03 -1.3826747875735398e-03 0.0000000000000000e+00  -1.3856391347449220e-03 -1.4545501375082329e-03 0.0000000000000000e+00  -3.2643598208089829e-03 -3.1379605366901485e-03 0.0000000000000000e+00  -1.5187311508024250e-03 -1.2613695174002845e-03 0.0000000000000000e+00  -1.6616474711369281e-03 -1.6478530557037917e-03 0.0000000000000000e+00  -1.5323134074213011e-03 -1.5871722678659061e-03 0.0000000000000000e+00  -1.6787538864502984e-03 -1.9836698161030397e-03 0.0000000000000000e+00  -1.1717861634406575e-03 -1.4105111383934275e-03 0.0000000000000000e+00  8.7111607270312658e-03 2.1188613477246907e-02 0.0000000000000000e+00  8.4390782173017452e-03 8.4075104467871593e-03 0.0000000000000000e+00  2.1056556467390797e-02 -1.3852083671436878e-03 0.0000000000000000e+00  8.5689115415698951e-03 7.9606427538523646e-03 0.0000000000000000e+00  2.1069191574529703e-02 8.1083325845269730e-03 0.0000000000000000e+00  -2.9167455373292541e-04 -2.2099372358028919e-03 0.0000000000000000e+00  -4.1228078397589820e-04 -3.3374752248745837e-04 0.0000000000000000e+00  -3.7879431927167247e-04 -2.0945750720394642e-03 0.0000000000000000e+00  1.4556321592423090e-02 1.3382943343791249e-02 0.0000000000000000e+00  -1.0158073189573992e-03 -1.0530795206955598e-03 0.0000000000000000e+00  1.6710057780672204e-03 1.5969909648568259e-03 0.0000000000000000e+00  -5.0016525648459171e-04 -1.0240500495563402e-03 0.0000000000000000e+00  1.4721161249948037e-03 2.3219523244439998e-03 0.0000000000000000e+00  2.3494035889371732e-03 -1.7469850313772944e-03 0.0000000000000000e+00  -1.0683615360574973e-03 1.6601897757295425e-03 0.0000000000000000e+00  -1.0780559719280308e-03 -6.8804679928379225e-05 0.0000000000000000e+00  -5.9244015746799401e-04 7.2310011627816761e-04 0.0000000000000000e+00  -4.2579420091695408e-03 3.9248461433029173e-04 0.0000000000000000e+00  2.1531119271491404e-02 6.1465014264336865e-03 0.0000000000000000e+00  2.1793216519368361e-02 2.1400000594087545e-02 0.0000000000000000e+00  2.1421108065962570e-02 2.1212992048192592e-02 0.0000000000000000e+00  7.8552009974282265e-03 2.1293247045965483e-02 0.0000000000000000e+00  1.0361360345095501e-02 2.2333687056578806e-04 0.0000000000000000e+00  7.9830549662981577e-03 6.7752835387252745e-03 0.0000000000000000e+00  2.5252222037696545e-03 -3.1058541880877519e-02 0.0000000000000000e+00  2.9093766669969316e-03 3.0284956139916795e-03 0.0000000000000000e+00  9.6591311494822439e-03 1.0598992163598730e-02 0.0000000000000000e+00  2.9806503614202944e-03 1.0841792307970981e-02 0.0000000000000000e+00  1.2631549860608838e-03 9.2591916856305766e-03 0.0000000000000000e+00  2.0570460599609892e-03 1.8608440921951859e-03 0.0000000000000000e+00  9.9727257585675768e-03 3.2331735958096228e-03 0.0000000000000000e+00  9.6202688955755646e-03 3.5279528979025310e-03 0.0000000000000000e+00  1.7985781123510854e-03 1.8352466277235854e-03 0.0000000000000000e+00  1.3119752336957554e-03 -9.3462536924274545e-04 0.0000000000000000e+00  3.6496305942718948e-03 4.0144567286436467e-03 0.0000000000000000e+00  1.9471332285000906e-03 4.7694765895610770e-03 0.0000000000000000e+00  4.8744318423584142e-03 4.2822410020122385e-03 0.0000000000000000e+00  4.4107917623144050e-03 4.9801509921517211e-03 0.0000000000000000e+00  7.9145250589896816e-03 4.9029313710748906e-03 0.0000000000000000e+00  -8.2144207698116745e-04 -6.0259440168951572e-03 0.0000000000000000e+00  1.8092616464784796e-03 1.3428323631560291e-03 0.0000000000000000e+00  9.7160413541886072e-03 1.0232281578309356e-02 0.0000000000000000e+00  3.2458741766264419e-03 1.0693904915272128e-02 0.0000000000000000e+00  7.5122192999954700e-03 3.6881675255997868e-03 0.0000000000000000e+00  4.6067909715128627e-03 9.7739343780679968e-03 0.0000000000000000e+00  6.9666938609503175e-03 3.3064564590485849e-03 0.0000000000000000e+00  1.5420176604259532e-03 2.3095890532681788e-03 0.0000000000000000e+00  4.3403337612840896e-03 1.0763558502607205e-03 0.0000000000000000e+00  -1.6720507400619974e-04 1.0467700556435373e-03 0.0000000000000000e+00  2.7742692832580587e-04 3.1333289463116344e-03 0.0000000000000000e+00  5.3804325486317070e-04 2.8942638177074896e-03 0.0000000000000000e+00  9.9277924264296966e-03 5.2405259655009667e-03 0.0000000000000000e+00  5.8868876791586915e-03 5.4996391079103826e-03 0.0000000000000000e+00  6.4144831391641753e-03 6.2123783470437351e-03 0.0000000000000000e+00  6.0351469590575399e-03 7.8829726216869348e-03 0.0000000000000000e+00  5.5490398469509039e-03 5.2678622166162335e-03 0.0000000000000000e+00  5.1159681415151870e-03 6.4441075285007147e-03 0.0000000000000000e+00  -4.8248578852103721e-03 -3.3578643851169612e-03 0.0000000000000000e+00  -4.3653513769017979e-03 -3.6877301361794741e-03 0.0000000000000000e+00  6.3392446946597576e-04 -9.8248176349293934e-04 0.0000000000000000e+00  -6.5413732661331256e-03 -7.9633097375398157e-03 0.0000000000000000e+00  -1.5077491680754937e-04 -1.8461985911723232e-03 0.0000000000000000e+00  -2.9215222008412006e-03 -1.3187631061900887e-02 0.0000000000000000e+00  2.6346285880315991e-03 -5.4247214727519248e-04 0.0000000000000000e+00  1.3302652473829457e-03 2.6115494346148887e-03 0.0000000000000000e+00  1.3399378165186041e-03 -5.8404163410589929e-04 0.0000000000000000e+00  1.8382464338232846e-03 1.8896847365012306e-03 0.0000000000000000e+00  -6.3046342126402075e-03 1.2640395237549654e-03 0.0000000000000000e+00  -8.1253644904956401e-04 -7.5788815973396408e-04 0.0000000000000000e+00  1.9787505378485552e-03 -4.923