<?xml version="1.0"?>
<VTKFile type="UnstructuredGrid"  version="0.1"  >
<UnstructuredGrid>
<Piece  NumberOfPoints="16275" NumberOfCells="32468">
<Points>
<DataArray  type="Float64"  NumberOfComponents="3"  format="ascii">-0.5 0.5 0  0.5 0.5 0  0.5 -0.5 0  -0.5 -0.5 0  -1 1 0  1 1 0  1 -1 0  -1 -1 0  -0.4900000000000277 0.5 0  -0.4800000000000555 0.5 0  -0.4700000000000832 0.5 0  -0.4600000000001109 0.5 0  -0.4500000000001387 0.5 0  -0.4400000000001664 0.5 0  -0.4300000000001942 0.5 0  -0.4200000000002219 0.5 0  -0.4100000000002497 0.5 0  -0.4000000000002774 0.5 0  -0.3900000000003052 0.5 0  -0.3800000000003328 0.5 0  -0.3700000000003606 0.5 0  -0.3600000000003883 0.5 0  -0.3500000000004161 0.5 0  -0.3400000000004438 0.5 0  -0.3300000000004716 0.5 0  -0.3200000000004993 0.5 0  -0.3100000000005271 0.5 0  -0.3000000000005548 0.5 0  -0.2900000000005825 0.5 0  -0.2800000000006103 0.5 0  -0.2700000000006381 0.5 0  -0.2600000000006658 0.5 0  -0.2500000000006935 0.5 0  -0.2400000000007212 0.5 0  -0.230000000000749 0.5 0  -0.2200000000007767 0.5 0  -0.2100000000008044 0.5 0  -0.2000000000008322 0.5 0  -0.19000000000086 0.5 0  -0.1800000000008877 0.5 0  -0.1700000000009154 0.5 0  -0.1600000000009431 0.5 0  -0.1500000000009709 0.5 0  -0.1400000000009986 0.5 0  -0.1300000000010264 0.5 0  -0.1200000000010541 0.5 0  -0.1100000000010818 0.5 0  -0.1000000000011096 0.5 0  -0.09000000000113734 0.5 0  -0.08000000000116503 0.5 0  -0.07000000000119283 0.5 0  -0.06000000000122058 0.5 0  -0.05000000000124827 0.5 0  -0.04000000000127607 0.5 0  -0.03000000000130376 0.5 0  -0.02000000000133151 0.5 0  -0.01000000000135925 0.5 0  -1.376121439022882e-12 0.5 0  0.009999999998640763 0.5 0  0.01999999999866864 0.5 0  0.02999999999869629 0.5 0  0.03999999999872406 0.5 0  0.04999999999875182 0.5 0  0.05999999999877947 0.5 0  0.06999999999880724 0.5 0  0.079999999998835 0.5 0  0.08999999999886266 0.5 0  0.09999999999889042 0.5 0  0.1099999999989182 0.5 0  0.1199999999989459 0.5 0  0.1299999999989737 0.5 0  0.1399999999990014 0.5 0  0.1499999999990291 0.5 0  0.1599999999990568 0.5 0  0.1699999999990847 0.5 0  0.1799999999991124 0.5 0  0.1899999999991401 0.5 0  0.1999999999991678 0.5 0  0.2099999999991955 0.5 0  0.2199999999992234 0.5 0  0.2299999999992511 0.5 0  0.2399999999992788 0.5 0  0.2499999999993066 0.5 0  0.2599999999993342 0.5 0  0.269999999999362 0.5 0  0.2799999999993897 0.5 0  0.2899999999994175 0.5 0  0.2999999999994452 0.5 0  0.3099999999994729 0.5 0  0.3199999999995007 0.5 0  0.3299999999995284 0.5 0  0.3399999999995562 0.5 0  0.3499999999995839 0.5 0  0.3599999999996116 0.5 0  0.3699999999996393 0.5 0  0.379999999999667 0.5 0  0.3899999999996949 0.5 0  0.3999999999997226 0.5 0  0.4099999999997503 0.5 0  0.419999999999778 0.5 0  0.4299999999998058 0.5 0  0.4399999999998336 0.5 0  0.4499999999998613 0.5 0  0.4599999999998891 0.5 0  0.4699999999999167 0.5 0  0.4799999999999445 0.5 0  0.4899999999999722 0.5 0  0.5 0.4900000000000277 0  0.5 0.4800000000000555 0  0.5 0.4700000000000832 0  0.5 0.4600000000001109 0  0.5 0.4500000000001387 0  0.5 0.4400000000001664 0  0.5 0.4300000000001942 0  0.5 0.4200000000002219 0  0.5 0.4100000000002497 0  0.5 0.4000000000002774 0  0.5 0.3900000000003052 0  0.5 0.3800000000003328 0  0.5 0.3700000000003606 0  0.5 0.3600000000003883 0  0.5 0.3500000000004161 0  0.5 0.3400000000004438 0  0.5 0.3300000000004716 0  0.5 0.3200000000004993 0  0.5 0.3100000000005271 0  0.5 0.3000000000005548 0  0.5 0.2900000000005825 0  0.5 0.2800000000006103 0  0.5 0.2700000000006381 0  0.5 0.2600000000006658 0  0.5 0.2500000000006935 0  0.5 0.2400000000007212 0  0.5 0.230000000000749 0  0.5 0.2200000000007767 0  0.5 0.2100000000008044 0  0.5 0.2000000000008322 0  0.5 0.19000000000086 0  0.5 0.1800000000008877 0  0.5 0.1700000000009154 0  0.5 0.1600000000009431 0  0.5 0.1500000000009709 0  0.5 0.1400000000009986 0  0.5 0.1300000000010264 0  0.5 0.1200000000010541 0  0.5 0.1100000000010818 0  0.5 0.1000000000011096 0  0.5 0.09000000000113734 0  0.5 0.08000000000116503 0  0.5 0.07000000000119283 0  0.5 0.06000000000122058 0  0.5 0.05000000000124827 0  0.5 0.04000000000127607 0  0.5 0.03000000000130376 0  0.5 0.02000000000133151 0  0.5 0.01000000000135925 0  0.5 1.376121439022882e-12 0  0.5 -0.009999999998640763 0  0.5 -0.01999999999866864 0  0.5 -0.02999999999869629 0  0.5 -0.03999999999872406 0  0.5 -0.04999999999875182 0  0.5 -0.05999999999877947 0  0.5 -0.06999999999880724 0  0.5 -0.079999999998835 0  0.5 -0.08999999999886266 0  0.5 -0.09999999999889042 0  0.5 -0.1099999999989182 0  0.5 -0.1199999999989459 0  0.5 -0.1299999999989737 0  0.5 -0.1399999999990014 0  0.5 -0.1499999999990291 0  0.5 -0.1599999999990568 0  0.5 -0.1699999999990847 0  0.5 -0.1799999999991124 0  0.5 -0.1899999999991401 0  0.5 -0.1999999999991678 0  0.5 -0.2099999999991955 0  0.5 -0.2199999999992234 0  0.5 -0.2299999999992511 0  0.5 -0.2399999999992788 0  0.5 -0.2499999999993066 0  0.5 -0.2599999999993342 0  0.5 -0.269999999999362 0  0.5 -0.2799999999993897 0  0.5 -0.2899999999994175 0  0.5 -0.2999999999994452 0  0.5 -0.3099999999994729 0  0.5 -0.3199999999995007 0  0.5 -0.3299999999995284 0  0.5 -0.3399999999995562 0  0.5 -0.3499999999995839 0  0.5 -0.3599999999996116 0  0.5 -0.3699999999996393 0  0.5 -0.379999999999667 0  0.5 -0.3899999999996949 0  0.5 -0.3999999999997226 0  0.5 -0.4099999999997503 0  0.5 -0.419999999999778 0  0.5 -0.4299999999998058 0  0.5 -0.4399999999998336 0  0.5 -0.4499999999998613 0  0.5 -0.4599999999998891 0  0.5 -0.4699999999999167 0  0.5 -0.4799999999999445 0  0.5 -0.4899999999999722 0  0.4900000000000277 -0.5 0  0.4800000000000555 -0.5 0  0.4700000000000832 -0.5 0  0.4600000000001109 -0.5 0  0.4500000000001387 -0.5 0  0.4400000000001664 -0.5 0  0.4300000000001942 -0.5 0  0.4200000000002219 -0.5 0  0.4100000000002497 -0.5 0  0.4000000000002774 -0.5 0  0.3900000000003052 -0.5 0  0.3800000000003328 -0.5 0  0.3700000000003606 -0.5 0  0.3600000000003883 -0.5 0  0.3500000000004161 -0.5 0  0.3400000000004438 -0.5 0  0.3300000000004716 -0.5 0  0.3200000000004993 -0.5 0  0.3100000000005271 -0.5 0  0.3000000000005548 -0.5 0  0.2900000000005825 -0.5 0  0.2800000000006103 -0.5 0  0.2700000000006381 -0.5 0  0.2600000000006658 -0.5 0  0.2500000000006935 -0.5 0  0.2400000000007212 -0.5 0  0.230000000000749 -0.5 0  0.2200000000007767 -0.5 0  0.2100000000008044 -0.5 0  0.2000000000008322 -0.5 0  0.19000000000086 -0.5 0  0.1800000000008877 -0.5 0  0.1700000000009154 -0.5 0  0.1600000000009431 -0.5 0  0.1500000000009709 -0.5 0  0.1400000000009986 -0.5 0  0.1300000000010264 -0.5 0  0.1200000000010541 -0.5 0  0.1100000000010818 -0.5 0  0.1000000000011096 -0.5 0  0.09000000000113734 -0.5 0  0.08000000000116503 -0.5 0  0.07000000000119283 -0.5 0  0.06000000000122058 -0.5 0  0.05000000000124827 -0.5 0  0.04000000000127607 -0.5 0  0.03000000000130376 -0.5 0  0.02000000000133151 -0.5 0  0.01000000000135925 -0.5 0  1.376121439022882e-12 -0.5 0  -0.009999999998640763 -0.5 0  -0.01999999999866864 -0.5 0  -0.02999999999869629 -0.5 0  -0.03999999999872406 -0.5 0  -0.04999999999875182 -0.5 0  -0.05999999999877947 -0.5 0  -0.06999999999880724 -0.5 0  -0.079999999998835 -0.5 0  -0.08999999999886266 -0.5 0  -0.09999999999889042 -0.5 0  -0.1099999999989182 -0.5 0  -0.1199999999989459 -0.5 0  -0.1299999999989737 -0.5 0  -0.1399999999990014 -0.5 0  -0.1499999999990291 -0.5 0  -0.1599999999990568 -0.5 0  -0.1699999999990847 -0.5 0  -0.1799999999991124 -0.5 0  -0.1899999999991401 -0.5 0  -0.1999999999991678 -0.5 0  -0.2099999999991955 -0.5 0  -0.2199999999992234 -0.5 0  -0.2299999999992511 -0.5 0  -0.2399999999992788 -0.5 0  -0.2499999999993066 -0.5 0  -0.2599999999993342 -0.5 0  -0.269999999999362 -0.5 0  -0.2799999999993897 -0.5 0  -0.2899999999994175 -0.5 0  -0.2999999999994452 -0.5 0  -0.3099999999994729 -0.5 0  -0.3199999999995007 -0.5 0  -0.3299999999995284 -0.5 0  -0.3399999999995562 -0.5 0  -0.3499999999995839 -0.5 0  -0.3599999999996116 -0.5 0  -0.3699999999996393 -0.5 0  -0.379999999999667 -0.5 0  -0.3899999999996949 -0.5 0  -0.3999999999997226 -0.5 0  -0.4099999999997503 -0.5 0  -0.419999999999778 -0.5 0  -0.4299999999998058 -0.5 0  -0.4399999999998336 -0.5 0  -0.4499999999998613 -0.5 0  -0.4599999999998891 -0.5 0  -0.4699999999999167 -0.5 0  -0.4799999999999445 -0.5 0  -0.4899999999999722 -0.5 0  -0.5 -0.4900000000000277 0  -0.5 -0.4800000000000555 0  -0.5 -0.4700000000000832 0  -0.5 -0.4600000000001109 0  -0.5 -0.4500000000001387 0  -0.5 -0.4400000000001664 0  -0.5 -0.4300000000001942 0  -0.5 -0.4200000000002219 0  -0.5 -0.4100000000002497 0  -0.5 -0.4000000000002774 0  -0.5 -0.3900000000003052 0  -0.5 -0.3800000000003328 0  -0.5 -0.3700000000003606 0  -0.5 -0.3600000000003883 0  -0.5 -0.3500000000004161 0  -0.5 -0.3400000000004438 0  -0.5 -0.3300000000004716 0  -0.5 -0.3200000000004993 0  -0.5 -0.3100000000005271 0  -0.5 -0.3000000000005548 0  -0.5 -0.2900000000005825 0  -0.5 -0.2800000000006103 0  -0.5 -0.2700000000006381 0  -0.5 -0.2600000000006658 0  -0.5 -0.2500000000006935 0  -0.5 -0.2400000000007212 0  -0.5 -0.230000000000749 0  -0.5 -0.2200000000007767 0  -0.5 -0.2100000000008044 0  -0.5 -0.2000000000008322 0  -0.5 -0.19000000000086 0  -0.5 -0.1800000000008877 0  -0.5 -0.1700000000009154 0  -0.5 -0.1600000000009431 0  -0.5 -0.1500000000009709 0  -0.5 -0.1400000000009986 0  -0.5 -0.1300000000010264 0  -0.5 -0.1200000000010541 0  -0.5 -0.1100000000010818 0  -0.5 -0.1000000000011096 0  -0.5 -0.09000000000113734 0  -0.5 -0.08000000000116503 0  -0.5 -0.07000000000119283 0  -0.5 -0.06000000000122058 0  -0.5 -0.05000000000124827 0  -0.5 -0.04000000000127607 0  -0.5 -0.03000000000130376 0  -0.5 -0.02000000000133151 0  -0.5 -0.01000000000135925 0  -0.5 -1.376121439022882e-12 0  -0.5 0.009999999998640763 0  -0.5 0.01999999999866864 0  -0.5 0.02999999999869629 0  -0.5 0.03999999999872406 0  -0.5 0.04999999999875182 0  -0.5 0.05999999999877947 0  -0.5 0.06999999999880724 0  -0.5 0.079999999998835 0  -0.5 0.08999999999886266 0  -0.5 0.09999999999889042
[...]
<PointData  Vectors="f_58-0"> 
<DataArray  type="Float64"  Name="f_58-0"  NumberOfComponents="3" format="ascii">2.9002349669771531e-03 -3.0808885360969766e-02 0.0000000000000000e+00  -9.6807179357931705e-03 4.8453591315805379e-02 0.0000000000000000e+00  -2.5062085483640945e-02 -2.5166374239266497e-02 0.0000000000000000e+00  -4.4758931011370795e-02 2.1062695517244162e-01 0.0000000000000000e+00  8.3408741800057879e-03 0.0000000000000000e+00 0.0000000000000000e+00  2.1627847450472713e-02 0.0000000000000000e+00 0.0000000000000000e+00  1.8345049255337014e-02 0.0000000000000000e+00 0.0000000000000000e+00  -2.4077837842449025e-02 0.0000000000000000e+00 0.0000000000000000e+00  -3.3496311347007597e-02 9.3054823447446977e-02 0.0000000000000000e+00  -3.0817676917494916e-02 1.5145354116744057e-05 0.0000000000000000e+00  -7.9272882375034780e-03 5.8147546160991936e-02 0.0000000000000000e+00  -2.6331588917930554e-02 -1.0024844184470490e-03 0.0000000000000000e+00  -2.2657840203046324e-03 -9.8660712936599806e-03 0.0000000000000000e+00  9.5929239304511534e-03 -6.1805605866416639e-03 0.0000000000000000e+00  1.7396293155448689e-02 -2.3278653714950949e-02 0.0000000000000000e+00  -1.8951079195328221e-02 -5.7084073094862383e-03 0.0000000000000000e+00  -4.8964548780746707e-02 -1.1919872191526357e-03 0.0000000000000000e+00  6.5859804952356970e-03 -1.2666103230360427e-02 0.0000000000000000e+00  -1.7444786693144556e-02 9.1244532052837321e-03 0.0000000000000000e+00  -1.7831250503173388e-02 6.7367255403131664e-03 0.0000000000000000e+00  7.7208488218831906e-03 -1.4799014610513452e-02 0.0000000000000000e+00  -3.6136613632174477e-02 -1.6469484828469362e-02 0.0000000000000000e+00  -5.7485399838751859e-02 1.5569297788592324e-02 0.0000000000000000e+00  7.0200649676921455e-03 4.8278298942870312e-03 0.0000000000000000e+00  3.7871069083743672e-03 1.9392462181519955e-02 0.0000000000000000e+00  1.4852238153749728e-03 2.7382536108084879e-03 0.0000000000000000e+00  6.1692353042059958e-03 6.1679890324180201e-03 0.0000000000000000e+00  5.5801283963590794e-03 -1.7904323016595711e-02 0.0000000000000000e+00  5.9980159874254996e-03 -1.2358593536625282e-02 0.0000000000000000e+00  -1.9182044699079977e-02 2.8068258138022090e-03 0.0000000000000000e+00  -1.4536735284038707e-03 -2.1657930134570303e-03 0.0000000000000000e+00  3.6867440899095113e-03 -7.5779285286637927e-03 0.0000000000000000e+00  -9.3758046859937962e-03 2.3697803349442329e-02 0.0000000000000000e+00  -7.0322263540597259e-03 -8.2007667126873726e-03 0.0000000000000000e+00  -1.5962694561790922e-02 1.6400722853497758e-02 0.0000000000000000e+00  -1.6018816572546318e-02 -1.6138367618650888e-02 0.0000000000000000e+00  -1.3714359441071322e-02 -1.2786577608807996e-02 0.0000000000000000e+00  -6.1465287334232406e-03 -1.4356131493216153e-02 0.0000000000000000e+00  1.4023300977145464e-01 -4.7119601560820677e-03 0.0000000000000000e+00  1.4824996116142946e-02 -1.5612192342096346e-02 0.0000000000000000e+00  -1.5145961075191096e-02 -5.9831832076748560e-03 0.0000000000000000e+00  -1.5095817597377680e-02 1.4354457030413703e-01 0.0000000000000000e+00  -1.5454776019863791e-02 -4.9500717906978348e-03 0.0000000000000000e+00  -5.3719757554967478e-03 -4.4080259738924054e-03 0.0000000000000000e+00  -4.7039549684745512e-03 1.3105995529237138e-01 0.0000000000000000e+00  1.4379032002724784e-02 -1.4506777326719565e-02 0.0000000000000000e+00  -1.4335553387665498e-02 -1.4810480174061690e-02 0.0000000000000000e+00  -5.5040938011483844e-03 1.2956193606279612e-01 0.0000000000000000e+00  -1.4782319845380391e-02 -1.4895137951888484e-02 0.0000000000000000e+00  -2.6828099229524921e-02 -8.3034688057359567e-03 0.0000000000000000e+00  1.1586979304410211e-03 -9.2100418493013883e-03 0.0000000000000000e+00  -2.5449978574296945e-02 -1.4531354340850575e-02 0.0000000000000000e+00  -6.3441511669574064e-03 -6.1316397403054423e-03 0.0000000000000000e+00  -2.6136839272619936e-02 -6.8171023057094545e-03 0.0000000000000000e+00  5.5159923803953723e-03 -2.0524626362743055e-03 0.0000000000000000e+00  8.9416538073692018e-03 -2.5829096470947360e-02 0.0000000000000000e+00  -7.7548402390186378e-04 -2.5712284779621158e-02 0.0000000000000000e+00  -1.4038148580167650e-02 -2.1092842927818316e-02 0.0000000000000000e+00  -2.2168446711689518e-02 1.9395516592603079e-03 0.0000000000000000e+00  -8.4527063799796926e-03 -2.3608114442890051e-02 0.0000000000000000e+00  2.1525139230944091e-03 3.1670788870047871e-03 0.0000000000000000e+00  1.2654464095616174e-02 -9.4786445777815288e-03 0.0000000000000000e+00  -9.3947843569597619e-03 -7.6842650024021011e-03 0.0000000000000000e+00  -3.2069808671078585e-03 -7.7802228943131164e-03 0.0000000000000000e+00  1.9189212735857289e-01 -8.6478407558253855e-04 0.0000000000000000e+00  1.2741744340172939e-02 -1.1126421520077469e-03 0.0000000000000000e+00  -5.2072310959223262e-03 -1.1042797889529813e-02 0.0000000000000000e+00  -4.2313613112120174e-03 1.4685736923811302e-01 0.0000000000000000e+00  2.7262418927689248e-02 -1.5703458580683140e-02 0.0000000000000000e+00  -1.8685860211185290e-02 -1.8229066182878558e-02 0.0000000000000000e+00  -4.6875150277801217e-03 -4.8947741482865690e-03 0.0000000000000000e+00  -4.2902800934995567e-03 1.6397021230512530e-02 0.0000000000000000e+00  -9.8940540670415106e-03 -8.9404436476892713e-03 0.0000000000000000e+00  -3.3321119141363586e-03 1.2077762520154458e-02 0.0000000000000000e+00  -3.5176290107872951e-03 -5.9968616528679186e-03 0.0000000000000000e+00  -1.4022605371241637e-02 7.2838023531642208e-03 0.0000000000000000e+00  1.2925008943985714e-02 1.2947653807261672e-02 0.0000000000000000e+00  -1.3788923815909679e-03 1.0600446363671224e-03 0.0000000000000000e+00  2.0157439967244417e-03 1.5403846558608393e-03 0.0000000000000000e+00  -3.6403774168686964e-03 -7.0726636925673315e-03 0.0000000000000000e+00  -3.9170087496884316e-03 -8.4827095968254586e-03 0.0000000000000000e+00  1.5479274585603409e-01 1.2405311519402079e-02 0.0000000000000000e+00  -6.7035836215845667e-03 -6.7362839865869285e-03 0.0000000000000000e+00  -9.9519388408815402e-03 -1.0558887939574591e-02 0.0000000000000000e+00  -1.4334926055184181e-02 -5.2285130445237117e-03 0.0000000000000000e+00  -1.4700988614970408e-02 -1.4243597310418370e-02 0.0000000000000000e+00  -1.0608840591542362e-02 -1.0247414494467259e-02 0.0000000000000000e+00  -6.0327833386518495e-03 -1.0171343613554561e-02 0.0000000000000000e+00  1.1285775449460174e-01 1.2775629930183673e-02 0.0000000000000000e+00  -5.6926021422022384e-03 -8.8250018267127823e-03 0.0000000000000000e+00  -9.1057618845107133e-03 -8.4132225161005301e-03 0.0000000000000000e+00  1.2098943008948913e-01 1.2425816900818881e-02 0.0000000000000000e+00  -4.6556824467103262e-03 1.2490686289294270e-01 0.0000000000000000e+00  -7.5329598087268109e-03 -7.0549517375774144e-03 0.0000000000000000e+00  -7.8531302763752819e-03 -7.2687223797882027e-03 0.0000000000000000e+00  -7.2354597355837550e-03 -4.9386167374380948e-03 0.0000000000000000e+00  -7.4999974290822832e-03 7.4790826481386588e-02 0.0000000000000000e+00  -7.9191597433242410e-03 -5.0622121275056536e-03 0.0000000000000000e+00  -5.0962407280367092e-03 1.0751322777367105e-01 0.0000000000000000e+00  -5.1647818607259040e-03 -1.3193338352647225e-02 0.0000000000000000e+00  -1.0945198609818289e-02 -5.7208210795656744e-03 0.0000000000000000e+00  -5.4803759709765509e-03 -1.1297930556502240e-02 0.0000000000000000e+00  -1.1843406825505422e-02 -1.0834903317399752e-02 0.0000000000000000e+00  -5.7271419538516208e-03 -1.0956795726664328e-02 0.0000000000000000e+00  3.2240573563784805e-02 -1.1231100293199828e-02 0.0000000000000000e+00  -1.2242370907144922e-02 -3.2288021758637969e-03 0.0000000000000000e+00  5.8616334285993825e-02 9.6883206619744460e-03 0.0000000000000000e+00  -6.1308412811305977e-03 -9.8260338325603085e-03 0.0000000000000000e+00  -3.6675474770776081e-03 1.4946746171850185e-03 0.0000000000000000e+00  5.0273385900522882e-04 -8.6291658770932134e-03 0.0000000000000000e+00  -1.4046458147528718e-02 -1.5158399625034475e-03 0.0000000000000000e+00  -1.3952604452123273e-02 -1.3936173717204307e-03 0.0000000000000000e+00  -1.6903840719070282e-02 -1.6855582693266900e-02 0.0000000000000000e+00  2.0456690789905649e-03 -1.6398773901544247e-02 0.0000000000000000e+00  1.5180219883566395e-01 -8.0540270715444173e-02 0.0000000000000000e+00  1.0960557503100470e-01 -1.6698258943086261e-01 0.0000000000000000e+00  -1.7455766929153149e-01 7.7801606757716135e-02 0.0000000000000000e+00  1.1266976971745350e-01 9.5533833852719588e-02 0.0000000000000000e+00  4.5963159787998406e-02 -1.4160704363582916e-01 0.0000000000000000e+00  -1.3532159927956275e-01 4.4289640866974532e-02 0.0000000000000000e+00  -8.1890286811644383e-02 1.0868015854913836e-02 0.0000000000000000e+00  4.4875137269645433e-02 4.3557964140764877e-02 0.0000000000000000e+00  -9.4460032031585719e-02 -1.1870211224911903e-01 0.0000000000000000e+00  -9.0250309700434850e-02 4.0481924181036986e-02 0.0000000000000000e+00  -8.7900084833101008e-02 3.9686047642871834e-02 0.0000000000000000e+00  -1.1079922698423468e-01 -1.0806732001117987e-01 0.0000000000000000e+00  -1.4512171966854002e-02 -3.3282290399114609e-02 0.0000000000000000e+00  -5.4540525314654576e-03 2.5002820957839783e-03 0.0000000000000000e+00  -1.3613486578474608e-02 -1.6608663402870358e-02 0.0000000000000000e+00  -1.4023597782903515e-02 -2.4399549409942250e-02 0.0000000000000000e+00  -1.4610455556008730e-02 -1.7844699200563075e-02 0.0000000000000000e+00  -1.4159909332872618e-02 -1.4332387285181920e-02 0.0000000000000000e+00  -1.8033535490250444e-02 -1.0194218519824837e-02 0.0000000000000000e+00  -1.8092124044909830e-02 -1.7285746689193006e-02 0.0000000000000000e+00  -3.7708357507759055e-02 -3.6101071318483328e-02 0.0000000000000000e+00  1.2915972013122404e-01 -4.4867444486299549e-02 0.0000000000000000e+00  -1.1591758796674598e-02 -1.2148270090021630e-02 0.0000000000000000e+00  2.4745977499602682e-03 -1.7953492835728595e-02 0.0000000000000000e+00  -1.7766781387227541e-02 -1.1445941491186320e-02 0.0000000000000000e+00  2.3928430408348615e-03 -1.7620240677544384e-02 0.0000000000000000e+00  -6.4205390461269080e-02 4.1428476376963792e-02 0.0000000000000000e+00  1.1064441508900497e-01 -6.1733855895812678e-02 0.0000000000000000e+00  -3.1262496273160217e-02 -1.6246003993834156e-02 0.0000000000000000e+00  2.5740992121353022e-03 -1.6396143921775731e-02 0.0000000000000000e+00  4.2216489235317428e-02 -8.3261899072605561e-02 0.0000000000000000e+00  4.1719377424454071e-02 -7.8739380167840711e-02 0.0000000000000000e+00  1.5807523452623987e-02 4.2481673978697128e-02 0.0000000000000000e+00  -8.3162071708582683e-02 4.2097196604562952e-02 0.0000000000000000e+00  4.3476867305775845e-03 -4.7823414943643167e-03 0.0000000000000000e+00  5.0114514508321764e-03 -5.1602505106809315e-03 0.0000000000000000e+00  -5.5745350688191971e-03 1.3162825754350616e-01 0.0000000000000000e+00  6.5143111261929442e-03 6.8101794955299100e-03 0.0000000000000000e+00  -1.8469903218958129e-02 -2.1731458241942780e-02 0.0000000000000000e+00  -2.1248779835109595e-02 -1.7725261416954387e-02 0.0000000000000000e+00  -2.1449832622045892e-02 -1.7926247836474278e-02 0.0000000000000000e+00  -2.0723588089747169e-02 -1.3049267281836478e-02 0.0000000000000000e+00  -1.8801434659968561e-02 -1.8655165866990904e-02 0.0000000000000000e+00  -1.7154436967256152e-02 -1.7316709048170412e-02 0.0000000000000000e+00  -1.7154779063540442e-02 -1.8405060561790330e-02 0.0000000000000000e+00  -1.7864146784229460e-02 -1.9334301585577807e-02 0.0000000000000000e+00  2.9621095581865335e-03 -1.6988864371432748e-02 0.0000000000000000e+00  -2.5300940075180009e-02 -1.4270516262923472e-02 0.0000000000000000e+00  2.8429359092764523e-03 -1.7268098403961891e-02 0.0000000000000000e+00  -1.3909967528050540e-02 -1.7392912803727522e-02 0.0000000000000000e+00  -1.4376643117532395e-02 -1.4918441086954603e-02 0.0000000000000000e+00  -2.1030202991788781e-02 -2.4112379865635789e-02 0.0000000000000000e+00  -2.3842531082460743e-02 -2.3554531205700283e-02 0.0000000000000000e+00  -2.4519714717308506e-02 -2.4294553674076992e-02 0.0000000000000000e+00  -4.3950461209116606e-03 -4.0977213019511580e-03 0.0000000000000000e+00  -3.7735005668352900e-03 -1.8584411635509711e-03 0.0000000000000000e+00  1.1745608555392323e-01 -2.5465526441501283e-03 0.0000000000000000e+00  -2.5118494289033570e-02 2.1419422786732537e-02 0.0000000000000000e+00  -2.3630912821249177e-02 -2.4355147062992025e-02 0.0000000000000000e+00  -2.3720556416579896e-02 -2.4710946072758300e-02 0.0000000000000000e+00  -7.4645423786965232e-03 -1.1188421859708090e-02 0.0000000000000000e+00  -1.6828903440333345e-02 -1.6661121179636487e-02 0.0000000000000000e+00  -2.0696570472754732e-02 3.3874094606379623e-03 0.0000000000000000e+00  -1.6833151571100533e-02 -1.6996288756784796e-02 0.0000000000000000e+00  1.4494875737928761e-02 1.2213194671610167e-02 0.0000000000000000e+00  9.5776930922605776e-03 -1.3656795811918797e-02 0.0000000000000000e+00  8.2805131781031761e-03 -1.5154446504608511e-02 0.0000000000000000e+00  -2.4320501758504552e-02 -2.3037291769951871e-02 0.0000000000000000e+00  1.3450995125646554e-02 -2.3427005480088754e-02 0.0000000000000000e+00  -2.5568132319435548e-02 -2.1128787518612580e-02 0.0000000000000000e+00  -2.5277051311451779e-02 6.1101623927859085e-03 0.0000000000000000e+00  1.1016596934450211e-01 -4.5477075843246275e-03 0.0000000000000000e+00  1.3854805948738134e-02 -4.6373919513409976e-03 0.0000000000000000e+00  -1.0941745498309582e-02 -4.5480857229080081e-03 0.0000000000000000e+00  -2.2673921427733230e-02 -1.6736185856051695e-02 0.0000000000000000e+00  -1.7252366630396462e-02 -2.2298705092189251e-02 0.0000000000000000e+00  -2.4336228010540521e-02 -2.4225111594223726e-02 0.0000000000000000e+00  -2.1144736001876878e-02 -2.0870294061403633e-02 0.0000000000000000e+00  -2.1087350327425650e-02 -2.4405554846391078e-02 0.0000000000000000e+00  -2.4639216801048049e-02 -2.4978343317074603e-02 0.0000000000000000e+00  1.3738800686436658e-02 1.3728491322968311e-02 0.0000000000000000e+00  1.4055448813436103e-02 1.6665985993047003e-02 0.0000000000000000e+00  1.3382962274595431e-02 -1.0318050609608468e-02 0.0000000000000000e+00  1.4941582741860677e-03 1.4456220702987993e-02 0.0000000000000000e+00  1.4237020076416227e-02 1.3966218185733124e-02 0.0000000000000000e+00  -2.4444376458326526e-02 -2.5365012381284319e-02 0.0000000000000000e+00  -2.4348643658966711e-02 -2.4299587354329698e-02 0.0000000000000000e+00  5.8332057766771620e-03 2.7451591536696490e-02 0.0000000000000000e+00  -2.4053397674302712e-02 5.6950855575265647e-03 0.0000000000000000e+00  -2.4018811019710370e-02 -2.5945668486850725e-02 0.0000000000000000e+00  -2.5772309762418615e-02 -2.5680419455646381e-02 0.0000000000000000e+00  -2.3395929665359399e-02 -2.3527219662294121e-02 0.0000000000000000e+00  -2.4705610273388027e-02 -2.4475956031723100e-02 0.0000000000000000e+00  -2.4337896296892380e-02 -2.5170214548251892e-02 0.0000000000000000e+00  -2.4402439126395815e-02 -2.5400636321502600e-02 0.0000000000000000e+00  -2.5006435939209554e-02 -2.4149006963208045e-02 0.0000000000000000e+00  -2.4533389905509885e-02 -2.6005320983009627e-02 0.0000000000000000e+00  -1.3983586615162856e-02 7.4713834567692603e-03 0.0000000000000000e+00  -1.4864798540117758e-02 -1.5803109199910962e-02 0.0000000000000000e+00  6.3247469344871127e-03 -1.7458534137809959e-02 0.0000000000000000e+00  -1.4066275258308409e-02 -1.9865724968922270e-02 0.0000000000000000e+00  1.0847163520921244e-02 -1.8992995990393616e-02 0.0000000000000000e+00  -2.4934898007727704e-02 -1.8854937957000127e-02 0.0000000000000000e+00  -2.4686271350016293e-02 -2.4223852918002851e-02 0.0000000000000000e+00  -2.4760353460819999e-02 -1.8682322298684224e-02 0.0000000000000000e+00  -1.0580945827223843e-03 -2.3480314692338410e-03 0.0000000000000000e+00  -2.1285071255041119e-02 -2.0932945375433745e-02 0.0000000000000000e+00  3.9907470901730160e-03 -1.4910270701286093e-02 0.0000000000000000e+00  -1.6197358399048012e-02 -2.0620836777791061e-02 0.0000000000000000e+00  2.6687547633732871e-03 -1.3684409702459177e-02 0.0000000000000000e+00  -1.3890026082078125e-02 -9.0064009572426666e-03 0.0000000000000000e+00  -1.9856780132289462e-02 3.7635343747498087e-03 0.0000000000000000e+00  -1.9468037249304439e-02 -1.5872503593870234e-02 0.0000000000000000e+00  -1.6162769800896835e-02 -1.5897551571962269e-02 0.0000000000000000e+00  1.1136558623398943e-01 1.6377302514404970e-02 0.0000000000000000e+00  2.6373221508617352e-02 -3.9326729845177225e-02 0.0000000000000000e+00  2.6155512077486134e-02 1.5157922571485591e-02 0.0000000000000000e+00  1.4013127920172650e-02 1.2077931646328293e-02 0.0000000000000000e+00  -2.2598492232188412e-02 1.1694275800572890e-02 0.0000000000000000e+00  1.1782148274922941e-01 1.5532251091796149e-02 0.0000000000000000e+00  -2.1415657877235404e-02 -2.9445441067709976e-02 0.0000000000000000e+00  -1.2865265205546256e-01 3.1033557070692545e-02 0.0000000000000000e+00  -1.2237557781988968e-01 -1.1655926958969710e-01 0.0000000000000000e+00  4.5228806070711017e-02 4.5979328311549335e-02 0.0000000000000000e+00  -1.1979948051456359e-01 4.6539396919781262e-02 0.0000000000000000e+00  1.0739695276291575e-02 4.5113874493955305e-02 0.0000000000000000e+00  -1.0381311464157160e-02 -9.5672913988974172e-03 0.0000000000000000e+00  4.4234823895391080e-02 -1.1331285066353049e-01 0.0000000000000000e+00  4.4936455602419476e-02 -1.1253390906401166e-01 0.0000000000000000e+00  -9.3151754929450235e-03 -9.4631798468744008e-03 0.0000000000000000e+00  3.0411899682179183e-03 -1.6376849599115510e-03 0.0000000000000000e+00  -1.2139943041670372e-01 -1.2302704600531283e-01 0.0000000000000000e+00  2.4800653342711150e-02 -1.3386115104523635e-01 0.0000000000000000e+00  -1.3168757735910050e-01 -1.3160902052283568e-01 0.0000000000000000e+00  -1.2447868112168949e-01 -1.2196216041926831e-01 0.0000000000000000e+00  3.4813667748129093e-02 -1.1743833639500793e-01 0.0000000000000000e+00  -1.2311416403264970e-03 -2.8604487359876654e-02 0.0000000000000000e+00  -9.3697422913145180e-03 3.4230927399812017e-03 0.0000000000000000e+00  4.0532968719260258e-02 4.3116423146686712e-02 0.0000000000000000e+00  -9.4698138885615832e-02 4.3868103346063544e-02 0.0000000000000000e+00  3.8608012843865135e-02 -1.1582994228645260e-01 0.0000000000000000e+00  8.7253794340405484e-03 4.1045563098813798e-02 0.0000000000000000e+00  3.7870020826150756e-02 -1.1407065511605731e-01 0.0000000000000000e+00  8.5605108574716954e-02 7.5401122397699291e-02 0.0000000000000000e+00  -1.1486354960672400e-01 9.2761759466313279e-02 0.0000000000000000e+00  3.4119587502859532e-03 9.8446274811183204e-02 0.0000000000000000e+00  1.0708425081806643e-01 -1.1842489572777706e-01 0.0000000000000000e+00  1.0528225329320839e-01 -1.1627493837352637e-01 0.0000000000000000e+00  4.0294099534537546e-02 -1.2078417205719100e-01 0.0000000000000000e+00  -1.1966316407867331e-01 -1.2093122153966133e-01 0.0000000000000000e+00  -1.2043256859246336e-01 -1.2181359469032690e-01 0.0000000000000000e+00  -1.2241623673816678e-01 4.2565463412824127e-02 0.0000000000000000e+00  5.7835542435534577e-02 -1.2964609039532837e-01 0.0000000000000000e+00  6.2258416860908085e-02 5.0362437550955451e-02 0.0000000000000000e+00  9.0921614582570046e-02 -3.0412355977181917e-02 0.0000000000000000e+00  8.9523813377323402e-02 -2.5283377916578854e-02 0.0000000000000000e+00  -6.9911233192561165e-03 -4.9826791920866434e-02 0.0000000000000000e+00  1.2358072444892758e-01 1.2192906275262792e-01 0.0000000000000000e+00  -5.0465685222658117e-02 -3.7302381903579603e-02 0.0000000000000000e+00  4.0552809607273206e-02 -9.6038619112311895e-03 0.0000000000000000e+00  -1.1601362518341663e-02 -1.4928435932847419e-03 0.0000000000000000e+00  1.8016426113779743e-03 -1.1339006377813226e-02 0.0000000000000000e+00  1.7334323166760502e-03 -1.6959593776955239e-03 0.0000000000000000e+00  -5.8089000599715465e-03 -5.9382282260505527e-03 0.0000000000000000e+00  -2.7888841231949086e-02 -2.7491351210116898e-04 0.0000