<?xml version="1.0"?>
<VTKFile type="UnstructuredGrid"  version="0.1"  >
<UnstructuredGrid>
<Piece  NumberOfPoints="16275" NumberOfCells="32468">
<Points>
<DataArray  type="Float64"  NumberOfComponents="3"  format="ascii">-0.5 0.5 0  0.5 0.5 0  0.5 -0.5 0  -0.5 -0.5 0  -1 1 0  1 1 0  1 -1 0  -1 -1 0  -0.4900000000000277 0.5 0  -0.4800000000000555 0.5 0  -0.4700000000000832 0.5 0  -0.4600000000001109 0.5 0  -0.4500000000001387 0.5 0  -0.4400000000001664 0.5 0  -0.4300000000001942 0.5 0  -0.4200000000002219 0.5 0  -0.4100000000002497 0.5 0  -0.4000000000002774 0.5 0  -0.3900000000003052 0.5 0  -0.3800000000003328 0.5 0  -0.3700000000003606 0.5 0  -0.3600000000003883 0.5 0  -0.3500000000004161 0.5 0  -0.3400000000004438 0.5 0  -0.3300000000004716 0.5 0  -0.3200000000004993 0.5 0  -0.3100000000005271 0.5 0  -0.3000000000005548 0.5 0  -0.2900000000005825 0.5 0  -0.2800000000006103 0.5 0  -0.2700000000006381 0.5 0  -0.2600000000006658 0.5 0  -0.2500000000006935 0.5 0  -0.2400000000007212 0.5 0  -0.230000000000749 0.5 0  -0.2200000000007767 0.5 0  -0.2100000000008044 0.5 0  -0.2000000000008322 0.5 0  -0.19000000000086 0.5 0  -0.1800000000008877 0.5 0  -0.1700000000009154 0.5 0  -0.1600000000009431 0.5 0  -0.1500000000009709 0.5 0  -0.1400000000009986 0.5 0  -0.1300000000010264 0.5 0  -0.1200000000010541 0.5 0  -0.1100000000010818 0.5 0  -0.1000000000011096 0.5 0  -0.09000000000113734 0.5 0  -0.08000000000116503 0.5 0  -0.07000000000119283 0.5 0  -0.06000000000122058 0.5 0  -0.05000000000124827 0.5 0  -0.04000000000127607 0.5 0  -0.03000000000130376 0.5 0  -0.02000000000133151 0.5 0  -0.01000000000135925 0.5 0  -1.376121439022882e-12 0.5 0  0.009999999998640763 0.5 0  0.01999999999866864 0.5 0  0.02999999999869629 0.5 0  0.03999999999872406 0.5 0  0.04999999999875182 0.5 0  0.05999999999877947 0.5 0  0.06999999999880724 0.5 0  0.079999999998835 0.5 0  0.08999999999886266 0.5 0  0.09999999999889042 0.5 0  0.1099999999989182 0.5 0  0.1199999999989459 0.5 0  0.1299999999989737 0.5 0  0.1399999999990014 0.5 0  0.1499999999990291 0.5 0  0.1599999999990568 0.5 0  0.1699999999990847 0.5 0  0.1799999999991124 0.5 0  0.1899999999991401 0.5 0  0.1999999999991678 0.5 0  0.2099999999991955 0.5 0  0.2199999999992234 0.5 0  0.2299999999992511 0.5 0  0.2399999999992788 0.5 0  0.2499999999993066 0.5 0  0.2599999999993342 0.5 0  0.269999999999362 0.5 0  0.2799999999993897 0.5 0  0.2899999999994175 0.5 0  0.2999999999994452 0.5 0  0.3099999999994729 0.5 0  0.3199999999995007 0.5 0  0.3299999999995284 0.5 0  0.3399999999995562 0.5 0  0.3499999999995839 0.5 0  0.3599999999996116 0.5 0  0.3699999999996393 0.5 0  0.379999999999667 0.5 0  0.3899999999996949 0.5 0  0.3999999999997226 0.5 0  0.4099999999997503 0.5 0  0.419999999999778 0.5 0  0.4299999999998058 0.5 0  0.4399999999998336 0.5 0  0.4499999999998613 0.5 0  0.4599999999998891 0.5 0  0.4699999999999167 0.5 0  0.4799999999999445 0.5 0  0.4899999999999722 0.5 0  0.5 0.4900000000000277 0  0.5 0.4800000000000555 0  0.5 0.4700000000000832 0  0.5 0.4600000000001109 0  0.5 0.4500000000001387 0  0.5 0.4400000000001664 0  0.5 0.4300000000001942 0  0.5 0.4200000000002219 0  0.5 0.4100000000002497 0  0.5 0.4000000000002774 0  0.5 0.3900000000003052 0  0.5 0.3800000000003328 0  0.5 0.3700000000003606 0  0.5 0.3600000000003883 0  0.5 0.3500000000004161 0  0.5 0.3400000000004438 0  0.5 0.3300000000004716 0  0.5 0.3200000000004993 0  0.5 0.3100000000005271 0  0.5 0.3000000000005548 0  0.5 0.2900000000005825 0  0.5 0.2800000000006103 0  0.5 0.2700000000006381 0  0.5 0.2600000000006658 0  0.5 0.2500000000006935 0  0.5 0.2400000000007212 0  0.5 0.230000000000749 0  0.5 0.2200000000007767 0  0.5 0.2100000000008044 0  0.5 0.2000000000008322 0  0.5 0.19000000000086 0  0.5 0.1800000000008877 0  0.5 0.1700000000009154 0  0.5 0.1600000000009431 0  0.5 0.1500000000009709 0  0.5 0.1400000000009986 0  0.5 0.1300000000010264 0  0.5 0.1200000000010541 0  0.5 0.1100000000010818 0  0.5 0.1000000000011096 0  0.5 0.09000000000113734 0  0.5 0.08000000000116503 0  0.5 0.07000000000119283 0  0.5 0.06000000000122058 0  0.5 0.05000000000124827 0  0.5 0.04000000000127607 0  0.5 0.03000000000130376 0  0.5 0.02000000000133151 0  0.5 0.01000000000135925 0  0.5 1.376121439022882e-12 0  0.5 -0.009999999998640763 0  0.5 -0.01999999999866864 0  0.5 -0.02999999999869629 0  0.5 -0.03999999999872406 0  0.5 -0.04999999999875182 0  0.5 -0.05999999999877947 0  0.5 -0.06999999999880724 0  0.5 -0.079999999998835 0  0.5 -0.08999999999886266 0  0.5 -0.09999999999889042 0  0.5 -0.1099999999989182 0  0.5 -0.1199999999989459 0  0.5 -0.1299999999989737 0  0.5 -0.1399999999990014 0  0.5 -0.1499999999990291 0  0.5 -0.1599999999990568 0  0.5 -0.1699999999990847 0  0.5 -0.1799999999991124 0  0.5 -0.1899999999991401 0  0.5 -0.1999999999991678 0  0.5 -0.2099999999991955 0  0.5 -0.2199999999992234 0  0.5 -0.2299999999992511 0  0.5 -0.2399999999992788 0  0.5 -0.2499999999993066 0  0.5 -0.2599999999993342 0  0.5 -0.269999999999362 0  0.5 -0.2799999999993897 0  0.5 -0.2899999999994175 0  0.5 -0.2999999999994452 0  0.5 -0.3099999999994729 0  0.5 -0.3199999999995007 0  0.5 -0.3299999999995284 0  0.5 -0.3399999999995562 0  0.5 -0.3499999999995839 0  0.5 -0.3599999999996116 0  0.5 -0.3699999999996393 0  0.5 -0.379999999999667 0  0.5 -0.3899999999996949 0  0.5 -0.3999999999997226 0  0.5 -0.4099999999997503 0  0.5 -0.419999999999778 0  0.5 -0.4299999999998058 0  0.5 -0.4399999999998336 0  0.5 -0.4499999999998613 0  0.5 -0.4599999999998891 0  0.5 -0.4699999999999167 0  0.5 -0.4799999999999445 0  0.5 -0.4899999999999722 0  0.4900000000000277 -0.5 0  0.4800000000000555 -0.5 0  0.4700000000000832 -0.5 0  0.4600000000001109 -0.5 0  0.4500000000001387 -0.5 0  0.4400000000001664 -0.5 0  0.4300000000001942 -0.5 0  0.4200000000002219 -0.5 0  0.4100000000002497 -0.5 0  0.4000000000002774 -0.5 0  0.3900000000003052 -0.5 0  0.3800000000003328 -0.5 0  0.3700000000003606 -0.5 0  0.3600000000003883 -0.5 0  0.3500000000004161 -0.5 0  0.3400000000004438 -0.5 0  0.3300000000004716 -0.5 0  0.3200000000004993 -0.5 0  0.3100000000005271 -0.5 0  0.3000000000005548 -0.5 0  0.2900000000005825 -0.5 0  0.2800000000006103 -0.5 0  0.2700000000006381 -0.5 0  0.2600000000006658 -0.5 0  0.2500000000006935 -0.5 0  0.2400000000007212 -0.5 0  0.230000000000749 -0.5 0  0.2200000000007767 -0.5 0  0.2100000000008044 -0.5 0  0.2000000000008322 -0.5 0  0.19000000000086 -0.5 0  0.1800000000008877 -0.5 0  0.1700000000009154 -0.5 0  0.1600000000009431 -0.5 0  0.1500000000009709 -0.5 0  0.1400000000009986 -0.5 0  0.1300000000010264 -0.5 0  0.1200000000010541 -0.5 0  0.1100000000010818 -0.5 0  0.1000000000011096 -0.5 0  0.09000000000113734 -0.5 0  0.08000000000116503 -0.5 0  0.07000000000119283 -0.5 0  0.06000000000122058 -0.5 0  0.05000000000124827 -0.5 0  0.04000000000127607 -0.5 0  0.03000000000130376 -0.5 0  0.02000000000133151 -0.5 0  0.01000000000135925 -0.5 0  1.376121439022882e-12 -0.5 0  -0.009999999998640763 -0.5 0  -0.01999999999866864 -0.5 0  -0.02999999999869629 -0.5 0  -0.03999999999872406 -0.5 0  -0.04999999999875182 -0.5 0  -0.05999999999877947 -0.5 0  -0.06999999999880724 -0.5 0  -0.079999999998835 -0.5 0  -0.08999999999886266 -0.5 0  -0.09999999999889042 -0.5 0  -0.1099999999989182 -0.5 0  -0.1199999999989459 -0.5 0  -0.1299999999989737 -0.5 0  -0.1399999999990014 -0.5 0  -0.1499999999990291 -0.5 0  -0.1599999999990568 -0.5 0  -0.1699999999990847 -0.5 0  -0.1799999999991124 -0.5 0  -0.1899999999991401 -0.5 0  -0.1999999999991678 -0.5 0  -0.2099999999991955 -0.5 0  -0.2199999999992234 -0.5 0  -0.2299999999992511 -0.5 0  -0.2399999999992788 -0.5 0  -0.2499999999993066 -0.5 0  -0.2599999999993342 -0.5 0  -0.269999999999362 -0.5 0  -0.2799999999993897 -0.5 0  -0.2899999999994175 -0.5 0  -0.2999999999994452 -0.5 0  -0.3099999999994729 -0.5 0  -0.3199999999995007 -0.5 0  -0.3299999999995284 -0.5 0  -0.3399999999995562 -0.5 0  -0.3499999999995839 -0.5 0  -0.3599999999996116 -0.5 0  -0.3699999999996393 -0.5 0  -0.379999999999667 -0.5 0  -0.3899999999996949 -0.5 0  -0.3999999999997226 -0.5 0  -0.4099999999997503 -0.5 0  -0.419999999999778 -0.5 0  -0.4299999999998058 -0.5 0  -0.4399999999998336 -0.5 0  -0.4499999999998613 -0.5 0  -0.4599999999998891 -0.5 0  -0.4699999999999167 -0.5 0  -0.4799999999999445 -0.5 0  -0.4899999999999722 -0.5 0  -0.5 -0.4900000000000277 0  -0.5 -0.4800000000000555 0  -0.5 -0.4700000000000832 0  -0.5 -0.4600000000001109 0  -0.5 -0.4500000000001387 0  -0.5 -0.4400000000001664 0  -0.5 -0.4300000000001942 0  -0.5 -0.4200000000002219 0  -0.5 -0.4100000000002497 0  -0.5 -0.4000000000002774 0  -0.5 -0.3900000000003052 0  -0.5 -0.3800000000003328 0  -0.5 -0.3700000000003606 0  -0.5 -0.3600000000003883 0  -0.5 -0.3500000000004161 0  -0.5 -0.3400000000004438 0  -0.5 -0.3300000000004716 0  -0.5 -0.3200000000004993 0  -0.5 -0.3100000000005271 0  -0.5 -0.3000000000005548 0  -0.5 -0.2900000000005825 0  -0.5 -0.2800000000006103 0  -0.5 -0.2700000000006381 0  -0.5 -0.2600000000006658 0  -0.5 -0.2500000000006935 0  -0.5 -0.2400000000007212 0  -0.5 -0.230000000000749 0  -0.5 -0.2200000000007767 0  -0.5 -0.2100000000008044 0  -0.5 -0.2000000000008322 0  -0.5 -0.19000000000086 0  -0.5 -0.1800000000008877 0  -0.5 -0.1700000000009154 0  -0.5 -0.1600000000009431 0  -0.5 -0.1500000000009709 0  -0.5 -0.1400000000009986 0  -0.5 -0.1300000000010264 0  -0.5 -0.1200000000010541 0  -0.5 -0.1100000000010818 0  -0.5 -0.1000000000011096 0  -0.5 -0.09000000000113734 0  -0.5 -0.08000000000116503 0  -0.5 -0.07000000000119283 0  -0.5 -0.06000000000122058 0  -0.5 -0.05000000000124827 0  -0.5 -0.04000000000127607 0  -0.5 -0.03000000000130376 0  -0.5 -0.02000000000133151 0  -0.5 -0.01000000000135925 0  -0.5 -1.376121439022882e-12 0  -0.5 0.009999999998640763 0  -0.5 0.01999999999866864 0  -0.5 0.02999999999869629 0  -0.5 0.03999999999872406 0  -0.5 0.04999999999875182 0  -0.5 0.05999999999877947 0  -0.5 0.06999999999880724 0  -0.5 0.079999999998835 0  -0.5 0.08999999999886266 0  -0.5 0.09999999999889042
[...]
<PointData  Scalars="f_58-1"> 
<DataArray  type="Float64"  Name="f_58-1"  format="ascii">1.6057004855323038e-02  5.1791584904335936e-03  2.5487059032333042e-02  -1.4220776043640511e-02  2.1874236609713215e-03  -3.3892046824365975e-03  5.7262059135912813e-02  7.6226713077310691e-03  1.6204554199773829e-02  5.8080517609539204e-03  1.4969605668814423e-02  1.6216400027328094e-02  1.5759303572861781e-02  2.8003350832114578e-02  1.2187751247850551e-02  1.0551941578030055e-02  1.2757178461898267e-02  1.2044872242122043e-02  9.0221341396519075e-03  9.3023335748992075e-03  1.4768459780237361e-03  1.1342580401640422e-02  -5.1559150205070523e-03  2.1287599633237181e-03  -1.6383687206729266e-03  6.1443269565797385e-03  7.0551577640304590e-03  6.6854610064074928e-03  9.8297099386757628e-03  9.3770206037578352e-03  3.5434414601082146e-03  9.7483913557413343e-03  7.6762666257861002e-03  4.4362897326328428e-03  8.1907494959925515e-03  8.7679213369501272e-03  7.1021932470728454e-03  7.5213470767134319e-03  1.4757261896094923e-03  1.9155038577549446e-03  7.9351961528251122e-03  8.0536784992653130e-03  1.5390966762841973e-03  7.7541544304950746e-03  2.4533156154173601e-03  7.9314350712179418e-03  2.5643717070441656e-03  7.9793481648484654e-03  2.3617626925322454e-03  7.0965771190502416e-03  7.9481820211170732e-03  7.9894145002946532e-03  2.1283141689882427e-03  7.3696689728395687e-03  6.9523351098110062e-03  -1.2168219408227076e-02  1.2625713746249751e-02  6.9031930251110506e-03  6.4925313503370876e-03  6.4687736042762347e-03  6.4038439994987288e-03  -8.8486737216528159e-05  5.2385469652636938e-03  -1.2360732551826706e-03  1.1560963974034805e-02  1.1027634756404186e-02  6.8326261844137634e-03  -7.7465465274883807e-02  -2.2619322367315692e-02  3.8968789903276440e-03  -6.7467792645323202e-03  -6.7788352475226660e-03  -6.4409830507159718e-02  5.1876869635682074e-03  3.6212342217044260e-04  7.5689166121336218e-03  2.9435372656158943e-03  -2.1097768499830105e-03  -1.0879943251284792e-01  5.5998985476634223e-03  5.3984523672801609e-03  6.0091610613865250e-03  -3.6860855259331792e-04  6.8420369747823626e-03  -4.3368527653769758e-03  6.0016401658133430e-03  2.0060078777325305e-03  2.0679416912217506e-03  7.2020453304728815e-03  1.5830547490006666e-03  1.4478356752234893e-03  6.1019154391224887e-03  -9.4581357692530652e-03  -3.5423131300266218e-02  3.1918264607773399e-03  -9.8745969579240173e-03  -1.1972734649321264e-02  6.8162344480603987e-03  6.9033553161981153e-03  8.4577224467135680e-03  8.5921674022608474e-03  8.0714722956461028e-03  2.4639346031348334e-03  -4.2328910644362595e-02  4.5997673868165452e-03  5.7431537637716275e-03  5.5785911800831558e-03  5.5904223066699102e-03  4.3854552961739681e-05  2.1020776753955400e-02  3.0700744279499930e-03  1.0439169067423420e-03  9.7137192753107334e-03  3.3966665088554997e-02  4.0188561254865814e-02  -1.0635418138957368e-01  1.4860817900948059e-01  1.3589035257352181e-01  -4.1575091103215063e-02  -3.8893758311207845e-02  -4.0744863670252041e-02  7.8399163932063892e-02  9.6914098111522171e-02  -3.2280428259462861e-02  -3.3791673217753428e-02  -9.1420097774127809e-02  2.8112202361376674e-02  7.3162575458286874e-03  1.1286012556220346e-02  -1.6060294968107689e-03  2.9502419231158587e-02  2.0710927434270651e-02  3.1149756744087501e-02  2.6717111596749391e-02  -2.0257113937103999e-02  -2.3906793181974056e-02  -2.7699888817358182e-03  1.6327490234215265e-02  -2.4097005218443523e-03  1.6004200653194363e-02  -3.2775601777235611e-02  5.3190767664321591e-02  1.1619910611785038e-02  3.0352358695931336e-02  -9.0544582091145909e-02  -9.8408436365319554e-02  6.9663141867263953e-02  -3.2501774553517319e-02  -1.2468115636475205e-01  2.3590635032255548e-03  9.0359448859517796e-03  1.3282854007624384e-03  2.3717869329727831e-02  2.9790377304691827e-02  2.9784533394933428e-02  -2.7077585295301144e-03  2.5964739926189140e-02  2.5446833788267946e-02  2.4792197742173977e-02  -4.7137022496101843e-03  1.9535773856004277e-02  2.8853579122878056e-02  1.9047712637811142e-02  3.1708602691783244e-02  2.2410324260453977e-02  2.2185022130003014e-02  2.2489432572892987e-02  1.4811298187757983e-02  7.3584678383677169e-03  8.0930188245955364e-03  -1.1237090820015293e-01  -4.1176143770310083e-03  -4.3778857074781739e-03  2.2548462598593923e-02  4.1209307726075700e-03  2.4380002203963518e-02  2.6014100805781620e-02  2.6344980054321822e-02  -2.0941007304236293e-03  1.7994836935170903e-02  1.5971562747352133e-02  2.1968574888618770e-02  3.2159999643106119e-02  3.3954288668081999e-02  2.2190519844994948e-02  8.0180506684778500e-03  1.8390218503135977e-02  7.9169981760721115e-03  2.6925901469083784e-02  2.6805258500638428e-02  2.5889567967748699e-02  2.3173209008388335e-02  2.3919639978649689e-02  2.4796234219625308e-02  -1.0734144609338712e-02  -1.2452904909862839e-02  4.8283392386734292e-03  5.1576380309131305e-03  -2.6421536706957242e-03  -3.1819550399931375e-02  2.3796851062835606e-02  2.3659540840985437e-02  2.3499136702726939e-02  -4.5414490235887693e-03  2.3005096736480008e-02  3.2123464689797550e-02  2.3947560128235446e-02  -5.0514609891935654e-03  2.9731025482775317e-02  2.2618017508961107e-02  2.2599515653875333e-02  9.5606634667251957e-04  -1.5250413588633488e-02  2.2606568690873494e-02  1.9099185835348285e-02  2.2253922168398339e-02  3.3568419021783723e-02  -1.2208802789079178e-02  2.2501031041248894e-02  -3.3195627167112445e-03  -7.0033568693888279e-03  1.8256832311068474e-02  2.8184907134297880e-02  1.1936018102678275e-02  1.4680043580842751e-02  2.7614311159252818e-02  2.8024537358295652e-02  2.3776722736520841e-02  -1.6621022336625928e-02  2.4530468972051692e-02  2.4341767587816875e-02  2.1557306290457146e-02  2.0840755607099297e-02  -4.0130119475480603e-03  2.6986260428099922e-02  -1.4257742657465378e-02  9.8078732247906308e-02  9.9945800620081349e-02  1.0134887803048029e-01  9.4361095827579733e-02  -3.9604522824811507e-02  -2.2370854646060136e-03  -7.0947754450826342e-03  1.0488881006777003e-03  6.7513314161823023e-05  -1.0525666706991416e-02  -3.3429654995314514e-02  -1.9751367152183237e-02  -2.5182032430570610e-02  -3.3315623111655708e-02  5.7500944513307658e-04  7.5076344566273566e-04  2.6681840535211559e-03  -1.0504388855023396e-02  -3.4475279116816381e-02  9.6125822699351104e-02  -7.2169414267881935e-03  -5.6969169248852730e-02  8.7592544899376956e-02  8.9345404726198910e-02  8.2242308104027745e-02  1.8368426088776348e-02  -1.4559231387914696e-02  -3.4330793267162880e-02  -3.4025555659555867e-02  9.5520800111697737e-02  9.8146570630424590e-02  9.7158459812281189e-02  1.6631532140832201e-02  1.7894352522850949e-02  -8.4197147780252765e-02  -8.3242911377236495e-02  -8.7065155628643573e-02  -2.0901789037696607e-02  2.2351762865738889e-03  2.2531090967414975e-02  7.0923963792841015e-04  1.2523875812459692e-02  -8.2300518481824559e-04  -1.9324503692104032e-04  7.4332050384893556e-05  2.5332651382882101e-03  9.4015645485577462e-04  2.9721591540025779e-03  1.5812535004699553e-03  -1.2988547216244810e-03  4.5807217384660434e-04  1.2980698309485108e-02  -1.3277421225674237e-03  -2.0652707885548239e-05  1.1778311014539553e-02  -1.4550647241728647e-03  1.2450769496102567e-02  -9.5914121980171096e-04  9.5370321872256265e-03  -2.9332729263734729e-03  6.6814115243763079e-03  9.6891857171173459e-03  -9.5180372529511878e-03  -2.1310475961823193e-03  -1.1266228543785432e-01  -1.1588653090750213e-01  2.7030489954985846e-03  7.0752739717882410e-03  1.0940811168580977e-02  -3.5315239472979487e-02  -2.3432855914943698e-01  -1.3197904929961209e-02  2.2413953110784566e-02  2.0371017367991129e-02  -2.3896084481875951e-01  -5.0493783930413476e-02  -4.5176916827517816e-02  -1.4593529134213265e-02  -4.0943664894979831e-02  4.4381018610425343e-02  -3.7383836237315921e-02  -1.4826194853526972e-02  -3.6727820497281356e-02  -3.4507106826578433e-02  -1.5680267145046240e-02  3.6882749641556467e-02  -5.1488875491878187e-02  5.4132955972575759e-02  -2.1275904939410020e-01  -1.2500169553905238e-02  1.4151256157936833e-02  -4.2026717251323217e-02  -4.6653946410929209e-02  4.9792181560289112e-02  -3.9465040625592827e-02  4.0444346309953569e-02  3.7505673700397944e-02  -1.3460404851615242e-02  -4.1798327984217239e-02  -3.0831686211351645e-02  -5.7463696412440035e-02  -5.0780840497523475e-02  2.4302737383533657e-01  -4.1841170514961673e-01  -6.6005160777496852e-01  -5.9604659972122254e-01  5.4310596574658088e-02  -3.3210688163997498e-01  -4.2405531163183613e-01  -4.8988320162111444e-02  -3.9859130718499891e-01  -1.6739822043660779e-01  8.9282393408538663e-02  9.9516515163848115e-02  -4.5886735922746341e-01  -7.3836373427519822e-02  8.5202492106818614e-03  -6.0882314118822015e-03  1.1734196510818846e-03  7.7917975443865983e-04  5.8877447675507325e-03  -4.0803372175490585e-03  7.6752609233119717e-03  7.7256280579466510e-03  7.8580011962927979e-03  1.2206132588379407e-02  7.3404685601126830e-03  1.0469775105962175e-02  7.8678574479969388e-03  -3.0083691139680376e-03  1.1271619841765312e-02  5.4456971361693746e-03  5.6574677872769895e-03  6.8440494673826209e-03  7.2338956020985565e-03  1.0413098885871233e-02  6.6209279074750836e-04  5.8830116931919653e-03  1.1527158540110820e-02  5.9625914304891467e-03  1.0922773046517514e-02  5.8720224350794666e-03  6.2278408732780758e-03  1.0450319859049408e-02  6.5068247199991042e-03  1.0589830899812514e-02  6.5718179510941407e-03  6.1667288534950583e-03  6.6233277667381817e-03  7.2339106165066570e-03  8.9909792997494811e-02  8.3995189422562275e-02  6.8000996650281519e-03  5.9342393982840178e-03  5.9084293415649705e-03  5.6939436850714682e-03  9.3488812734055238e-03  -1.4268585196623583e-03  1.7438687657830652e-02  1.7800081740894293e-02  3.2160875130929377e-02  2.6490434269116223e-04  1.2970179332758331e-02  -1.7911543924702990e-03  1.8082895498969721e-02  1.5485523952985076e-02  1.5530582252528938e-02  1.3416432307902591e-02  3.6349887749796868e-03  2.7745568217413938e-03  1.7411612058419953e-03  4.2839028865347516e-04  2.1843871560549011e-03  1.0933909451731701e-04  -1.0752841363106743e-02  5.8710744175827501e-02  5.3332721503121169e-04  1.7600468768991434e-02  -5.8997755712820749e-03  -1.7462768388120115e-01  -2.7881127693933140e-03  -2.8162581837036147e-03  -2.6827115892293099e-02  3.7853344933737453e-02  3.8073918101910610e-02  6.0498323925963513e-04  -4.5353292603891558e-03  4.4810402953022153e-03  -8.0943272951360459e-03  4.3654904369548279e-03  2.4324385150843054e-03  2.7563364362304037e-03  5.1853001797902620e-03  2.9217704188184788e-03  2.8220859469735731e-03  7.8655607751067554e-03  1.1834709502743762e-02  2.1773643343480510e-02  2.4574797017120110e-02  3.0113482712184621e-02  3.1214640207479365e-02  -1.0398632374782536e-01  3.4499706335350405e-02  -6.4023395873412464e-02  -1.0131572699583535e-02  4.8319051715689627e-02  1.6543655882779949e-05  1.1897206526582977e-02  6.5921554545843308e-04  9.2022389035831906e-03  6.3761103420030517e-03  5.2371450211471269e-03  3.8789341207377081e-03  -1.3860966288439960e-02  5.2106077243317386e-03  1.3933122855807325e-02  -1.4013076146685788e-02  -6.7792925941709617e-02  -1.0443435827143038e-01  -9.7175836395178836e-02  -4.9266368793871979e-01  5.4583655709525307e-03  6.0586049121748942e-03  5.7146702905967912e-03  3.2576717164587761e-04  9.2366728957058650e-03  8.5232199973459558e-05  2.7459910831457912e-03  1.6951242183473898e-02  -3.1168967790990176e-03  9.8307808793133868e-03  -7.1129126317399338e-01  1.1180725196350008e-02  9.9069518549894080e-03  8.5230619149571207e-03  -6.2049741646895743e-04  8.7124734996288453e-04  9.4657879440950715e-04  1.2754144572236789e-03  2.7268301093092220e-04  2.3905418655659821e-03  5.0668867038554709e-03  -7.4093671110152968e-03  3.4101549326412991e-03  2.1227853793798070e-02  1.1113556647588611e-02  -2.4807103841754954e-02  8.6513684222257140e-03  2.1358533038621560e-03  1.0678658239027848e-02  -1.2286027509960931e-02  2.2829505423469662e-02  9.2190803245034286e-03  -5.8125556949624292e-03  -7.4716258566262248e-03  -6.4544481155386297e-03  1.1477964856061274e-02  -2.5524068195245894e-03  -2.5271895517855192e-03  4.3810693437700060e-03  6.7539316836788717e-03  4.3975523561123678e-03  7.0348349445460423e-03  1.1183612799082639e-02  8.8507885812422037e-03  2.4227135642079227e-02  -1.4308252318367685e-02  8.9354790948575243e-03  -9.2727629749951926e-02  1.4967985292439156e-02  8.8797887339917454e-03  -7.7690133821711044e-04  1.3479437409101132e-02  -2.5246142997388418e-02  2.0380432154430243e-03  -1.0951240840295296e-02  -1.6209477721697765e-01  -3.0408042722798812e-03  -3.5440632033080288e-02  9.7156162702865603e-03  2.7419443339139208e-02  9.2157925569947407e-03  -4.6612041992457859e-02  -5.1551468046188785e-02  -2.8616592980016228e-02  -6.2723979771011663e-04  2.2087608159025277e-02  3.6351160254058630e-03  -2.9369917090671008e-02  1.9736428077299060e-02  2.6675244401985800e-02  9.8115984922206769e-03  -2.7050361263683147e-02  1.7997172307069743e-03  1.5149794545439446e-02  1.6433307920830042e-02  -9.2755266795383645e-04  3.6622365188290318e-02  3.5118981995142191e-02  2.2828206720070469e-02  2.8083258185104851e-02  -3.8814022498912186e-02  -1.8418015738990492e-01  2.6308524750876243e-02  3.0577192709576945e-02  3.8141873628821411e-03  2.5179976214588493e-03  1.6298143800370722e-02  1.1560382816977455e-03  -1.4849479986664901e-03  4.2082950875310852e-02  -1.5837458271329046e-03  -1.1568631275126696e-03  -1.2835294442581415e-02  9.4861534796056770e-03  3.8082411003032210e-03  -7.1744112779436500e-02  1.1528518222667981e-02  -2.4615814667878322e-02  -2.8430993823235721e-03  -8.1500994054080551e-04  1.5870564438561727e-01  -3.0948047003124781e-02  2.6753437094721166e-02  9.5937592844832081e-03  -2.0129092084413564e-03  3.1804677975660021e-03  5.1557263691941408e-03  -1.9141056810747816e-02  -5.2701607774143372e-02  9.3849779646193784e-03  -3.5934527129839695e-02  5.3184257292615684e-05  -1.0044490238664222e-02  -9.4483652158868101e-02  2.8044041849445485e-02  1.0044104336598922e-02  3.3815975816589836e-03  1.0604087538499585e-02  1.4387833336540184e-02  8.0347852377079296e-02  9.4592796831064214e-03  5.2306787099897518e-03  3.6988040004433866e-03  -2.8249928118468090e-02  2.0570789683264163e-02  2.5595924798161755e-04  -4.6144659639742016e-03  9.9765873477178600e-03  8.3950365941492539e-03  -1.0388739205857895e-03  -1.7967493621880583e-02  1.5637931613072389e-02  -3.0751395831537143e-03  9.1719512688908430e-03  1.0785119670927940e-01  -1.4681720727552399e-02  -2.6898192135057956e-02  3.4220311705792737e-03  3.4734330892614461e-03  1.2497613642085969e-03  1.0412181631476560e-03  1.3169287704151791e-02  -4.2701078476916152e-03  9.6963378441494302e-03  -1.3086595722675792e-02  6.2052297639787184e-03  1.8917005768490053e-03  -1.3986452565571948e-03  -3.7374829663862415e-02  -1.4049023837307247e-02  4.7305676762482369e-03  -1.7372204104254142e-02  -3.0720527765456432e-02  1.3381973953172657e-01  2.0007399106363684e-02  1.1427000894490544e-02  2.2378874453564665e-02  1.1515168394408497e-03  -3.6518830823114813e-03  1.9599979391327148e-02  -3.9354975201855463e-02  1.2275493494305373e-02  -3.1818125219576769e-02  3.5010469014233104e-04  -3.5188110870813946e-04  5.1521091896029507e-03  3.4486678049981297e-02  1.0483591219452182e-01  1.0100422153145371e-02  -1.9718963619746861e-02  2.4470235635168640e-02  -3.4351405708433784e-03  3.3975900921482997e-03  -1.2077644722655146e-02  1.8127941296962002e-02  1.5458933139695441e-01  8.9168390966920114e-03  7.1700003973826799e-04  6.2162997423603431e-03  4.3483107262217964e-04  -1.9795193983981024e-02  1.7569879751462191e-02  8.4553011197745290e-03  2.1606363072295146e-02  -5.3020281303401591e-02  4.8650396889892995e-03  -3.6940121298365733e-03  3.2636530952349801e-03  8.9531901260398006e-02  2.4005332121505182e-02  2.2950217144384936e-02  2.9302187101391671e-03  -6.5299591755612882e-02  9.9622669386569968e-03  2.4465758690065863e-02  -3.5163799179560348e-02  -3.4851855192845366e-02  3.2209401443826426e-02  -1.5428409763782206e-02  -5.4863798888041500e-02  2.4224282876337635e-03  -1.0921718543801175e-02  5.6576729533076769e-02  -4.2584441626193327e-02  1.9004704029198232e-03  2.6534482739259966e-03  -3.5746612948280919e-03  7.5373411316137992e-03  -1.3894794878850425e-01  1.2048282989952946e-02  1.6460363825181493e-03  -1.3038875538286943e-01  3.1897448089002522e-02  -1.8272066625697452e-02  1.0853305567999440e-02  -5.7307260185137298e-04  -2.9101867587760722e-02  4.9772762846901164e-04  -1.4976341608077821e-03  1.6712573983444643e-02  1.2280709946923488e-02  -4.5020258388575552e-03  -2.4506854578008056e-02  1.4212434992556007e-02  7.5607565436978427e-02  1.8558680883572008e-02  -2.9078624937831209e-03  2.1637274572621542e-02  -1.6924777521984205e-01  -6.0496621508543255e-03  -6.1993107511674949e-03  -1.4779961668711926e-04  6.8148638308598852e-02  5.4283403229773873e-03  -1.4529469305522831e-02  5.4751363919963401e-03  1.9423674800723854e-02  3.0610799903400106e-02  2.5849460337158070e-02  -1.7633819789118293e-03  -2.1446573620594295e-02  1.2438142918222988e-02  -2.1007279764365082e-03  -2.5902607879887176e-04  -1.4013790758556496e-03  6.4463778046285683e-03  9.4590291025818552e-03  -4.5507588703494880e-03  1.9353233294317384e-02  1.5223121787815409e-02  -3.7519700006386401e-02  2.5118123684072236e-02  -1.0226494179950862e-02  -2.8114898301557830e-03  -5.1584156048300078e-02  -2.2764248585876553e-02  8.4438223688778555e-03  -1.1088706236046329e-02  1.0913516552576780e-05  -1.2144427302473440e-02  -1.4739090848213671e-02  7.0647517592444431e-04  2.3882113043913387e-02  -5.4964668828844265e-02  -4.3714034276686214e-02  -1.2558627852889823e-04  2.3760251524769099e-02  -6.6750017523352051e-02  -5.8715215211047002e-04  2.0140584095950986e-02  -2.6128494308179186e-02  -1.2541810130503957e-03  3.7027337876803103e-02  -1.3268116952658954e-01  4.0688272443413298e-03  -2.5524309280163363e-02  -2.3738910583074549e-01  -1.6048877444069864e-02  9.0476507873840217e-03  -1.9158808363489165e-02  2.5345085325575989e-01  3.4995749947425766e-03  1.7679982721057294e-02  2.0645996465461294e-02  5.7036371338934546e-03  3.8474317082245633e-03  2.1089475496114490e-02  -2.6247265928022914e-02  1.6403211354469847e-02  -1.5080721440527936e-03  1.5138142572777393e-03  -2.0882387116236308e-03  1.2895142127445514e-02  8.3471736740877572e-03  -1.9001140892365053e-02  -5.3008270978427254e-03  2.4888535000496315e-02  2.9965678139534394e-02  6.7688140428994121e-04  1.0111908755669466e-02  2.3639135458653040e-03  7.8695556553717350e-02  4.2722751268375091e-03  3.4581940395298445e-02  -4.5575399370923739e-04  6.2665053000280479e-03  -2.5534670782488486e-03  2.5042163118385394e-02  3.9450797645940665e-02  -1.8905719462240602e-03  2.9066235866229282e-02  9.7816962242407973e-03  -1.0686504291643575e-02  -3.2843963374781385e-03  1.3991476121449792e-02  -2.9224120826463924e-02  1.6769963502715007e-02  -1.5464739897934858e-02  -1.2235303457280911e-02  -3.0803196873901168e-03  2.1504252490470634e-02  -2.0487199528957552e-02  -1.9863502640942013e-02  -2.4791191737346011e-02  -3.0313645618207954e-02  4.4379959851027981e-03  -4.3762805792498791e-02  -4.1229737305920389e-02  2.0000349834418358e-02  -5.4316146849683221e-03  -2.0332759790775139e-02  6.2573540255629993e-03  1.0068330051778734e-02  6.7553993650925990e-03  1.2438954112570380e-02  6.2547662175880085e-03  -1.2589789495557563e-03  -9.4794765377998136e-02  4.9910076438009238e-02  3.3671302005518544e-02  -9.2648713626812557e-03  -2.1042702575870237e-02  -3.8528727572697385e-03  1.1055133313414411e-03  3.9412640611077764e-02  2.1398539530425083e-03  1.0226856879763538e-01  1.0934051158176876e-01  -3.7043967783013623e-02  3.5085059599400730e-03  -1.2152788666388283e-02  -1.6793026647779392e-02  4.5914167364154407e-02  -2.3464343749389445e-02  -2.3056588184360037e-02  1.7241361339029686e-02  1.0244943147618214e-02  4.8776814196291797e-02  6.0001504135173524e-03  1.7911130003715820e-02  4.4308843201