<?xml version="1.0"?>
<VTKFile type="UnstructuredGrid"  version="0.1"  >
<UnstructuredGrid>
<Piece  NumberOfPoints="16275" NumberOfCells="32468">
<Points>
<DataArray  type="Float64"  NumberOfComponents="3"  format="ascii">-0.5 0.5 0  0.5 0.5 0  0.5 -0.5 0  -0.5 -0.5 0  -1 1 0  1 1 0  1 -1 0  -1 -1 0  -0.4900000000000277 0.5 0  -0.4800000000000555 0.5 0  -0.4700000000000832 0.5 0  -0.4600000000001109 0.5 0  -0.4500000000001387 0.5 0  -0.4400000000001664 0.5 0  -0.4300000000001942 0.5 0  -0.4200000000002219 0.5 0  -0.4100000000002497 0.5 0  -0.4000000000002774 0.5 0  -0.3900000000003052 0.5 0  -0.3800000000003328 0.5 0  -0.3700000000003606 0.5 0  -0.3600000000003883 0.5 0  -0.3500000000004161 0.5 0  -0.3400000000004438 0.5 0  -0.3300000000004716 0.5 0  -0.3200000000004993 0.5 0  -0.3100000000005271 0.5 0  -0.3000000000005548 0.5 0  -0.2900000000005825 0.5 0  -0.2800000000006103 0.5 0  -0.2700000000006381 0.5 0  -0.2600000000006658 0.5 0  -0.2500000000006935 0.5 0  -0.2400000000007212 0.5 0  -0.230000000000749 0.5 0  -0.2200000000007767 0.5 0  -0.2100000000008044 0.5 0  -0.2000000000008322 0.5 0  -0.19000000000086 0.5 0  -0.1800000000008877 0.5 0  -0.1700000000009154 0.5 0  -0.1600000000009431 0.5 0  -0.1500000000009709 0.5 0  -0.1400000000009986 0.5 0  -0.1300000000010264 0.5 0  -0.1200000000010541 0.5 0  -0.1100000000010818 0.5 0  -0.1000000000011096 0.5 0  -0.09000000000113734 0.5 0  -0.08000000000116503 0.5 0  -0.07000000000119283 0.5 0  -0.06000000000122058 0.5 0  -0.05000000000124827 0.5 0  -0.04000000000127607 0.5 0  -0.03000000000130376 0.5 0  -0.02000000000133151 0.5 0  -0.01000000000135925 0.5 0  -1.376121439022882e-12 0.5 0  0.009999999998640763 0.5 0  0.01999999999866864 0.5 0  0.02999999999869629 0.5 0  0.03999999999872406 0.5 0  0.04999999999875182 0.5 0  0.05999999999877947 0.5 0  0.06999999999880724 0.5 0  0.079999999998835 0.5 0  0.08999999999886266 0.5 0  0.09999999999889042 0.5 0  0.1099999999989182 0.5 0  0.1199999999989459 0.5 0  0.1299999999989737 0.5 0  0.1399999999990014 0.5 0  0.1499999999990291 0.5 0  0.1599999999990568 0.5 0  0.1699999999990847 0.5 0  0.1799999999991124 0.5 0  0.1899999999991401 0.5 0  0.1999999999991678 0.5 0  0.2099999999991955 0.5 0  0.2199999999992234 0.5 0  0.2299999999992511 0.5 0  0.2399999999992788 0.5 0  0.2499999999993066 0.5 0  0.2599999999993342 0.5 0  0.269999999999362 0.5 0  0.2799999999993897 0.5 0  0.2899999999994175 0.5 0  0.2999999999994452 0.5 0  0.3099999999994729 0.5 0  0.3199999999995007 0.5 0  0.3299999999995284 0.5 0  0.3399999999995562 0.5 0  0.3499999999995839 0.5 0  0.3599999999996116 0.5 0  0.3699999999996393 0.5 0  0.379999999999667 0.5 0  0.3899999999996949 0.5 0  0.3999999999997226 0.5 0  0.4099999999997503 0.5 0  0.419999999999778 0.5 0  0.4299999999998058 0.5 0  0.4399999999998336 0.5 0  0.4499999999998613 0.5 0  0.4599999999998891 0.5 0  0.4699999999999167 0.5 0  0.4799999999999445 0.5 0  0.4899999999999722 0.5 0  0.5 0.4900000000000277 0  0.5 0.4800000000000555 0  0.5 0.4700000000000832 0  0.5 0.4600000000001109 0  0.5 0.4500000000001387 0  0.5 0.4400000000001664 0  0.5 0.4300000000001942 0  0.5 0.4200000000002219 0  0.5 0.4100000000002497 0  0.5 0.4000000000002774 0  0.5 0.3900000000003052 0  0.5 0.3800000000003328 0  0.5 0.3700000000003606 0  0.5 0.3600000000003883 0  0.5 0.3500000000004161 0  0.5 0.3400000000004438 0  0.5 0.3300000000004716 0  0.5 0.3200000000004993 0  0.5 0.3100000000005271 0  0.5 0.3000000000005548 0  0.5 0.2900000000005825 0  0.5 0.2800000000006103 0  0.5 0.2700000000006381 0  0.5 0.2600000000006658 0  0.5 0.2500000000006935 0  0.5 0.2400000000007212 0  0.5 0.230000000000749 0  0.5 0.2200000000007767 0  0.5 0.2100000000008044 0  0.5 0.2000000000008322 0  0.5 0.19000000000086 0  0.5 0.1800000000008877 0  0.5 0.1700000000009154 0  0.5 0.1600000000009431 0  0.5 0.1500000000009709 0  0.5 0.1400000000009986 0  0.5 0.1300000000010264 0  0.5 0.1200000000010541 0  0.5 0.1100000000010818 0  0.5 0.1000000000011096 0  0.5 0.09000000000113734 0  0.5 0.08000000000116503 0  0.5 0.07000000000119283 0  0.5 0.06000000000122058 0  0.5 0.05000000000124827 0  0.5 0.04000000000127607 0  0.5 0.03000000000130376 0  0.5 0.02000000000133151 0  0.5 0.01000000000135925 0  0.5 1.376121439022882e-12 0  0.5 -0.009999999998640763 0  0.5 -0.01999999999866864 0  0.5 -0.02999999999869629 0  0.5 -0.03999999999872406 0  0.5 -0.04999999999875182 0  0.5 -0.05999999999877947 0  0.5 -0.06999999999880724 0  0.5 -0.079999999998835 0  0.5 -0.08999999999886266 0  0.5 -0.09999999999889042 0  0.5 -0.1099999999989182 0  0.5 -0.1199999999989459 0  0.5 -0.1299999999989737 0  0.5 -0.1399999999990014 0  0.5 -0.1499999999990291 0  0.5 -0.1599999999990568 0  0.5 -0.1699999999990847 0  0.5 -0.1799999999991124 0  0.5 -0.1899999999991401 0  0.5 -0.1999999999991678 0  0.5 -0.2099999999991955 0  0.5 -0.2199999999992234 0  0.5 -0.2299999999992511 0  0.5 -0.2399999999992788 0  0.5 -0.2499999999993066 0  0.5 -0.2599999999993342 0  0.5 -0.269999999999362 0  0.5 -0.2799999999993897 0  0.5 -0.2899999999994175 0  0.5 -0.2999999999994452 0  0.5 -0.3099999999994729 0  0.5 -0.3199999999995007 0  0.5 -0.3299999999995284 0  0.5 -0.3399999999995562 0  0.5 -0.3499999999995839 0  0.5 -0.3599999999996116 0  0.5 -0.3699999999996393 0  0.5 -0.379999999999667 0  0.5 -0.3899999999996949 0  0.5 -0.3999999999997226 0  0.5 -0.4099999999997503 0  0.5 -0.419999999999778 0  0.5 -0.4299999999998058 0  0.5 -0.4399999999998336 0  0.5 -0.4499999999998613 0  0.5 -0.4599999999998891 0  0.5 -0.4699999999999167 0  0.5 -0.4799999999999445 0  0.5 -0.4899999999999722 0  0.4900000000000277 -0.5 0  0.4800000000000555 -0.5 0  0.4700000000000832 -0.5 0  0.4600000000001109 -0.5 0  0.4500000000001387 -0.5 0  0.4400000000001664 -0.5 0  0.4300000000001942 -0.5 0  0.4200000000002219 -0.5 0  0.4100000000002497 -0.5 0  0.4000000000002774 -0.5 0  0.3900000000003052 -0.5 0  0.3800000000003328 -0.5 0  0.3700000000003606 -0.5 0  0.3600000000003883 -0.5 0  0.3500000000004161 -0.5 0  0.3400000000004438 -0.5 0  0.3300000000004716 -0.5 0  0.3200000000004993 -0.5 0  0.3100000000005271 -0.5 0  0.3000000000005548 -0.5 0  0.2900000000005825 -0.5 0  0.2800000000006103 -0.5 0  0.2700000000006381 -0.5 0  0.2600000000006658 -0.5 0  0.2500000000006935 -0.5 0  0.2400000000007212 -0.5 0  0.230000000000749 -0.5 0  0.2200000000007767 -0.5 0  0.2100000000008044 -0.5 0  0.2000000000008322 -0.5 0  0.19000000000086 -0.5 0  0.1800000000008877 -0.5 0  0.1700000000009154 -0.5 0  0.1600000000009431 -0.5 0  0.1500000000009709 -0.5 0  0.1400000000009986 -0.5 0  0.1300000000010264 -0.5 0  0.1200000000010541 -0.5 0  0.1100000000010818 -0.5 0  0.1000000000011096 -0.5 0  0.09000000000113734 -0.5 0  0.08000000000116503 -0.5 0  0.07000000000119283 -0.5 0  0.06000000000122058 -0.5 0  0.05000000000124827 -0.5 0  0.04000000000127607 -0.5 0  0.03000000000130376 -0.5 0  0.02000000000133151 -0.5 0  0.01000000000135925 -0.5 0  1.376121439022882e-12 -0.5 0  -0.009999999998640763 -0.5 0  -0.01999999999866864 -0.5 0  -0.02999999999869629 -0.5 0  -0.03999999999872406 -0.5 0  -0.04999999999875182 -0.5 0  -0.05999999999877947 -0.5 0  -0.06999999999880724 -0.5 0  -0.079999999998835 -0.5 0  -0.08999999999886266 -0.5 0  -0.09999999999889042 -0.5 0  -0.1099999999989182 -0.5 0  -0.1199999999989459 -0.5 0  -0.1299999999989737 -0.5 0  -0.1399999999990014 -0.5 0  -0.1499999999990291 -0.5 0  -0.1599999999990568 -0.5 0  -0.1699999999990847 -0.5 0  -0.1799999999991124 -0.5 0  -0.1899999999991401 -0.5 0  -0.1999999999991678 -0.5 0  -0.2099999999991955 -0.5 0  -0.2199999999992234 -0.5 0  -0.2299999999992511 -0.5 0  -0.2399999999992788 -0.5 0  -0.2499999999993066 -0.5 0  -0.2599999999993342 -0.5 0  -0.269999999999362 -0.5 0  -0.2799999999993897 -0.5 0  -0.2899999999994175 -0.5 0  -0.2999999999994452 -0.5 0  -0.3099999999994729 -0.5 0  -0.3199999999995007 -0.5 0  -0.3299999999995284 -0.5 0  -0.3399999999995562 -0.5 0  -0.3499999999995839 -0.5 0  -0.3599999999996116 -0.5 0  -0.3699999999996393 -0.5 0  -0.379999999999667 -0.5 0  -0.3899999999996949 -0.5 0  -0.3999999999997226 -0.5 0  -0.4099999999997503 -0.5 0  -0.419999999999778 -0.5 0  -0.4299999999998058 -0.5 0  -0.4399999999998336 -0.5 0  -0.4499999999998613 -0.5 0  -0.4599999999998891 -0.5 0  -0.4699999999999167 -0.5 0  -0.4799999999999445 -0.5 0  -0.4899999999999722 -0.5 0  -0.5 -0.4900000000000277 0  -0.5 -0.4800000000000555 0  -0.5 -0.4700000000000832 0  -0.5 -0.4600000000001109 0  -0.5 -0.4500000000001387 0  -0.5 -0.4400000000001664 0  -0.5 -0.4300000000001942 0  -0.5 -0.4200000000002219 0  -0.5 -0.4100000000002497 0  -0.5 -0.4000000000002774 0  -0.5 -0.3900000000003052 0  -0.5 -0.3800000000003328 0  -0.5 -0.3700000000003606 0  -0.5 -0.3600000000003883 0  -0.5 -0.3500000000004161 0  -0.5 -0.3400000000004438 0  -0.5 -0.3300000000004716 0  -0.5 -0.3200000000004993 0  -0.5 -0.3100000000005271 0  -0.5 -0.3000000000005548 0  -0.5 -0.2900000000005825 0  -0.5 -0.2800000000006103 0  -0.5 -0.2700000000006381 0  -0.5 -0.2600000000006658 0  -0.5 -0.2500000000006935 0  -0.5 -0.2400000000007212 0  -0.5 -0.230000000000749 0  -0.5 -0.2200000000007767 0  -0.5 -0.2100000000008044 0  -0.5 -0.2000000000008322 0  -0.5 -0.19000000000086 0  -0.5 -0.1800000000008877 0  -0.5 -0.1700000000009154 0  -0.5 -0.1600000000009431 0  -0.5 -0.1500000000009709 0  -0.5 -0.1400000000009986 0  -0.5 -0.1300000000010264 0  -0.5 -0.1200000000010541 0  -0.5 -0.1100000000010818 0  -0.5 -0.1000000000011096 0  -0.5 -0.09000000000113734 0  -0.5 -0.08000000000116503 0  -0.5 -0.07000000000119283 0  -0.5 -0.06000000000122058 0  -0.5 -0.05000000000124827 0  -0.5 -0.04000000000127607 0  -0.5 -0.03000000000130376 0  -0.5 -0.02000000000133151 0  -0.5 -0.01000000000135925 0  -0.5 -1.376121439022882e-12 0  -0.5 0.009999999998640763 0  -0.5 0.01999999999866864 0  -0.5 0.02999999999869629 0  -0.5 0.03999999999872406 0  -0.5 0.04999999999875182 0  -0.5 0.05999999999877947 0  -0.5 0.06999999999880724 0  -0.5 0.079999999998835 0  -0.5 0.08999999999886266 0  -0.5 0.09999999999889042
[...]
<PointData  Vectors="f_27-0"> 
<DataArray  type="Float64"  Name="f_27-0"  NumberOfComponents="3" format="ascii">1.4226199019021612e-03 4.6130970133927571e-02 0.0000000000000000e+00  -2.0020968857452312e-03 4.5932821698850025e-02 0.0000000000000000e+00  -4.8983716406231161e-04 3.9552888622131854e-02 0.0000000000000000e+00  5.2115749543080083e-04 3.9412207527626170e-02 0.0000000000000000e+00  -1.5629282096289252e-03 6.5337870224125277e-03 0.0000000000000000e+00  1.5774418045339611e-03 6.4770616750382381e-03 0.0000000000000000e+00  -1.2644318833876522e-03 6.4360954394876452e-03 0.0000000000000000e+00  1.3160658195518454e-03 6.3429314930489311e-03 0.0000000000000000e+00  2.5972418891187293e-03 4.5437660810161720e-02 0.0000000000000000e+00  3.7318141392457681e-03 4.4676665314768119e-02 0.0000000000000000e+00  4.8227372389742021e-03 4.3847445926762145e-02 0.0000000000000000e+00  5.8656336249190240e-03 4.2953091825046252e-02 0.0000000000000000e+00  6.8548996330526314e-03 4.2000437419554254e-02 0.0000000000000000e+00  7.7877008682015808e-03 4.0994155842370400e-02 0.0000000000000000e+00  8.6619366668387321e-03 3.9937268093504660e-02 0.0000000000000000e+00  9.4739803352479907e-03 3.8840064441834403e-02 0.0000000000000000e+00  1.0224494544223802e-02 3.7704119505587420e-02 0.0000000000000000e+00  1.0907476798254547e-02 3.6538403508460271e-02 0.0000000000000000e+00  1.1524853465277577e-02 3.5345760454751587e-02 0.0000000000000000e+00  1.2075849514546173e-02 3.4132534307221137e-02 0.0000000000000000e+00  1.2560025448580368e-02 3.2904633901085688e-02 0.0000000000000000e+00  1.2978568710560513e-02 3.1667343715910137e-02 0.0000000000000000e+00  1.3328886602681490e-02 3.0426791609523041e-02 0.0000000000000000e+00  1.3615906880444948e-02 2.9187914317792631e-02 0.0000000000000000e+00  1.3840485197084317e-02 2.7951892261123368e-02 0.0000000000000000e+00  1.4001102590881520e-02 2.6730423101520795e-02 0.0000000000000000e+00  1.4102601327993167e-02 2.5521224557525250e-02 0.0000000000000000e+00  1.4147522549618983e-02 2.4330690459751749e-02 0.0000000000000000e+00  1.4135504426541969e-02 2.3161545394556411e-02 0.0000000000000000e+00  1.4071437483977999e-02 2.2017635763688884e-02 0.0000000000000000e+00  1.3956615925950338e-02 2.0900730913891562e-02 0.0000000000000000e+00  1.3793652971321128e-02 1.9815346671038070e-02 0.0000000000000000e+00  1.3584580322901706e-02 1.8763011875309311e-02 0.0000000000000000e+00  1.3334705361028973e-02 1.7743746140386291e-02 0.0000000000000000e+00  1.3042826617129711e-02 1.6762477357518440e-02 0.0000000000000000e+00  1.2713758275952019e-02 1.5819658314711771e-02 0.0000000000000000e+00  1.2351070867259027e-02 1.4913334824435631e-02 0.0000000000000000e+00  1.1954752007663499e-02 1.4048745915074131e-02 0.0000000000000000e+00  1.1528534467504513e-02 1.3224249997787436e-02 0.0000000000000000e+00  1.1074257027496389e-02 1.2441685419024000e-02 0.0000000000000000e+00  1.0594596512197605e-02 1.1701879570858239e-02 0.0000000000000000e+00  1.0092103531795045e-02 1.1003930006713333e-02 0.0000000000000000e+00  9.5678226373373098e-03 1.0348999471246893e-02 0.0000000000000000e+00  9.0235563534440937e-03 9.7342642962641515e-03 0.0000000000000000e+00  8.4622134813323330e-03 9.1641485328673358e-03 0.0000000000000000e+00  7.8845722023314219e-03 8.6359330079465724e-03 0.0000000000000000e+00  7.2927517030344441e-03 8.1498857287197225e-03 0.0000000000000000e+00  6.6874450594109919e-03 7.7072467036451639e-03 0.0000000000000000e+00  6.0720676430999401e-03 7.3062991554958519e-03 0.0000000000000000e+00  5.4466484553703041e-03 6.9458281023513290e-03 0.0000000000000000e+00  4.8116849021299507e-03 6.6294172983304613e-03 0.0000000000000000e+00  4.1695393451221772e-03 6.3534063572538652e-03 0.0000000000000000e+00  3.5211823750895366e-03 6.1190897024758053e-03 0.0000000000000000e+00  2.8669131577357819e-03 5.9258312556783686e-03 0.0000000000000000e+00  2.2092257286884399e-03 5.7742012252907675e-03 0.0000000000000000e+00  1.5481035891063669e-03 5.6635147520419067e-03 0.0000000000000000e+00  8.8549198701004658e-04 5.5924303688868514e-03 0.0000000000000000e+00  2.2051416015259805e-04 5.5628855367022964e-03 0.0000000000000000e+00  -4.4414448202351235e-04 5.5745018877686112e-03 0.0000000000000000e+00  -1.1075179871754702e-03 5.6256616211760105e-03 0.0000000000000000e+00  -1.7699759982909859e-03 5.7168426440842761e-03 0.0000000000000000e+00  -2.4294571944753584e-03 5.8498822218591082e-03 0.0000000000000000e+00  -3.0853178574546964e-03 6.0244148503825895e-03 0.0000000000000000e+00  -3.7361652478624030e-03 6.2395516408456442e-03 0.0000000000000000e+00  -4.3813431459535273e-03 6.4965106297484015e-03 0.0000000000000000e+00  -5.0193759561212112e-03 6.7943198149247371e-03 0.0000000000000000e+00  -5.6498903399708842e-03 7.1338138032936236e-03 0.0000000000000000e+00  -6.2712463643798816e-03 7.5140397249883698e-03 0.0000000000000000e+00  -6.8812656219227443e-03 7.9382113904668955e-03 0.0000000000000000e+00  -7.4802877402677789e-03 8.4034137992337003e-03 0.0000000000000000e+00  -8.0652510918501046e-03 8.9109058681111838e-03 0.0000000000000000e+00  -8.6350735470466337e-03 9.4605916771074161e-03 0.0000000000000000e+00  -9.1887333151588670e-03 1.0052580279192629e-02 0.0000000000000000e+00  -9.7232968883053366e-03 1.0686696518826940e-02 0.0000000000000000e+00  -1.0239157315925604e-02 1.1363570730634978e-02 0.0000000000000000e+00  -1.0730730499511242e-02 1.2084040476942778e-02 0.0000000000000000e+00  -1.1200165412168325e-02 1.2845352701055308e-02 0.0000000000000000e+00  -1.1641794972640668e-02 1.3649534731291253e-02 0.0000000000000000e+00  -1.2054056500110041e-02 1.4494990807830364e-02 0.0000000000000000e+00  -1.2436751892899868e-02 1.5379016944959110e-02 0.0000000000000000e+00  -1.2785850631076501e-02 1.6302433701447377e-02 0.0000000000000000e+00  -1.3100179089536305e-02 1.7265307583692439e-02 0.0000000000000000e+00  -1.3373208343793620e-02 1.8266262919106588e-02 0.0000000000000000e+00  -1.3609522147524091e-02 1.9301421938368174e-02 0.0000000000000000e+00  -1.3798637127174038e-02 2.0372433953768088e-02 0.0000000000000000e+00  -1.3942456877356017e-02 2.1473669308421931e-02 0.0000000000000000e+00  -1.4038306476010448e-02 2.2606190352637869e-02 0.0000000000000000e+00  -1.4081795812565041e-02 2.3762679728220069e-02 0.0000000000000000e+00  -1.4071092639935742e-02 2.4945429008471815e-02 0.0000000000000000e+00  -1.4004742799909967e-02 2.6147177872211123e-02 0.0000000000000000e+00  -1.3879918777540239e-02 2.7365254500539012e-02 0.0000000000000000e+00  -1.3692726464270931e-02 2.8599490539761158e-02 0.0000000000000000e+00  -1.3444086496017001e-02 2.9839561164438252e-02 0.0000000000000000e+00  -1.3132339680944181e-02 3.1083847163641706e-02 0.0000000000000000e+00  -1.2753287874483099e-02 3.2328926127905493e-02 0.0000000000000000e+00  -1.2308188887237998e-02 3.3566509404652119e-02 0.0000000000000000e+00  -1.1796225141530439e-02 3.4794471648146218e-02 0.0000000000000000e+00  -1.1217850049190854e-02 3.6003975550764157e-02 0.0000000000000000e+00  -1.0571388876408407e-02 3.7190370386368327e-02 0.0000000000000000e+00  -9.8582980963626589e-03 3.8350980376700948e-02 0.0000000000000000e+00  -9.0783466894149949e-03 3.9475178455421610e-02 0.0000000000000000e+00  -8.2386346619310619e-03 4.0561861321152498e-02 0.0000000000000000e+00  -7.3344245092036063e-03 4.1602092449075374e-02 0.0000000000000000e+00  -6.3724296202067729e-03 4.2590166964204035e-02 0.0000000000000000e+00  -5.3532573114802307e-03 4.3524416497399493e-02 0.0000000000000000e+00  -4.2813557781682561e-03 4.4392902199971773e-02 0.0000000000000000e+00  -3.1667528712593543e-03 4.5197894406210887e-02 0.0000000000000000e+00  -2.3035974889419296e-03 4.7148372529794660e-02 0.0000000000000000e+00  -2.6258012068443668e-03 4.8418377650802133e-02 0.0000000000000000e+00  -2.9694158574265828e-03 4.9760169388870970e-02 0.0000000000000000e+00  -3.3351931650831422e-03 5.1167989272786887e-02 0.0000000000000000e+00  -3.7261688956110660e-03 5.2655098550325304e-02 0.0000000000000000e+00  -4.1536262139345598e-03 5.4223318913341485e-02 0.0000000000000000e+00  -4.5964023590699468e-03 5.5871763547227789e-02 0.0000000000000000e+00  -5.0805402839518799e-03 5.7619591596582316e-02 0.0000000000000000e+00  -5.5972082426854336e-03 5.9458963476882391e-02 0.0000000000000000e+00  -6.1412412688302805e-03 6.1406291061839410e-02 0.0000000000000000e+00  -6.7296191085290512e-03 6.3474113090422890e-02 0.0000000000000000e+00  -7.3616623948503162e-03 6.5657283809755732e-02 0.0000000000000000e+00  -8.0397347694227423e-03 6.7980863699716967e-02 0.0000000000000000e+00  -8.7682425079087505e-03 7.0434951282980884e-02 0.0000000000000000e+00  -9.5485663646209008e-03 7.3049162819716920e-02 0.0000000000000000e+00  -1.0390204986453650e-02 7.5830827921206309e-02 0.0000000000000000e+00  -1.1310019244932896e-02 7.8778045254500911e-02 0.0000000000000000e+00  -1.2284111451185112e-02 8.1922611739507267e-02 0.0000000000000000e+00  -1.3340212447965866e-02 8.5277776318551671e-02 0.0000000000000000e+00  -1.4495722554917215e-02 8.8833478035301561e-02 0.0000000000000000e+00  -1.5742731419936758e-02 9.2623772522351253e-02 0.0000000000000000e+00  -1.7089345454019599e-02 9.6665326813148850e-02 0.0000000000000000e+00  -1.8553107242343249e-02 1.0094185078797550e-01 0.0000000000000000e+00  -2.0130741645880294e-02 1.0546848939482215e-01 0.0000000000000000e+00  -2.1768005950353383e-02 1.1026425305057871e-01 0.0000000000000000e+00  -2.3526649508764048e-02 1.1528208748470552e-01 0.0000000000000000e+00  -2.5299591014198246e-02 1.2053417119559727e-01 0.0000000000000000e+00  -2.7079277608158408e-02 1.2596117840565493e-01 0.0000000000000000e+00  -2.8671502014457336e-02 1.3142922282699188e-01 0.0000000000000000e+00  -2.9974098611011021e-02 1.3691713615634721e-01 0.0000000000000000e+00  -3.0684386244460363e-02 1.4225207326305392e-01 0.0000000000000000e+00  -3.0512783662424194e-02 1.4711989949154700e-01 0.0000000000000000e+00  -2.8728079959539791e-02 1.5130164417290340e-01 0.0000000000000000e+00  -2.4950708957293923e-02 1.5432971491077041e-01 0.0000000000000000e+00  -1.8093152468148407e-02 1.5579994472170888e-01 0.0000000000000000e+00  -7.3877469243254232e-03 1.5498720249088033e-01 0.0000000000000000e+00  8.2901183338194157e-03 1.5109683787424250e-01 0.0000000000000000e+00  2.9892347893824056e-02 1.4351120420691474e-01 0.0000000000000000e+00  5.7861608685181920e-02 1.3131778284647849e-01 0.0000000000000000e+00  9.1430544960656709e-02 1.1414341990106555e-01 0.0000000000000000e+00  1.2831414113851489e-01 9.1885408463333595e-02 0.0000000000000000e+00  1.6207583235971115e-01 6.5831239936951239e-02 0.0000000000000000e+00  1.8126046722307812e-01 3.9004380570366294e-02 0.0000000000000000e+00  1.7007160374288829e-01 1.6749588520185942e-02 0.0000000000000000e+00  1.1242290566042079e-01 5.6127950386263351e-03 0.0000000000000000e+00  6.1592966095665291e-03 9.8998133911660114e-03 0.0000000000000000e+00  -1.2466035845880964e-01 2.9680609892425689e-02 0.0000000000000000e+00  -2.3110651642626034e-01 5.1969698856918017e-02 0.0000000000000000e+00  -2.8813382952257460e-01 7.7072947354225832e-02 0.0000000000000000e+00  -2.8080537880046164e-01 1.2228011045043984e-01 0.0000000000000000e+00  -1.6018868071539100e-01 1.9751949306422434e-01 0.0000000000000000e+00  2.1389193445477066e-02 2.7295334332382570e-01 0.0000000000000000e+00  1.2914279673990875e-01 2.9428852059015054e-01 0.0000000000000000e+00  1.3495576334370901e-01 2.6924498642716288e-01 0.0000000000000000e+00  9.5694115707106425e-02 2.3254321825408802e-01 0.0000000000000000e+00  5.6793520689856457e-02 2.0064581069366316e-01 0.0000000000000000e+00  3.1492820888367405e-02 1.7753016482571493e-01 0.0000000000000000e+00  1.7369752778024598e-02 1.6121709690458058e-01 0.0000000000000000e+00  1.0271402343236171e-02 1.4942026008920850e-01 0.0000000000000000e+00  6.9286173623839551e-03 1.4058194111779945e-01 0.0000000000000000e+00  5.5919543234874839e-03 1.3341740348563566e-01 0.0000000000000000e+00  5.2407072105293030e-03 1.2740267500088026e-01 0.0000000000000000e+00  5.3032616163435856e-03 1.2213189853321067e-01 0.0000000000000000e+00  5.5745368589545877e-03 1.1739154079992424e-01 0.0000000000000000e+00  5.8876414918203526e-03 1.1299452434571108e-01 0.0000000000000000e+00  6.1246869058806863e-03 1.0891652710472155e-01 0.0000000000000000e+00  6.2888187693184508e-03 1.0503818305961807e-01 0.0000000000000000e+00  6.3844188441787497e-03 1.0134383961371443e-01 0.0000000000000000e+00  6.3874718276449331e-03 9.7826165743609375e-02 0.0000000000000000e+00  6.3186294971957040e-03 9.4442726909037503e-02 0.0000000000000000e+00  6.2027331499159115e-03 9.1218856163758688e-02 0.0000000000000000e+00  6.0418506294687034e-03 8.8116399881236360e-02 0.0000000000000000e+00  5.8326658275506876e-03 8.5154369916609546e-02 0.0000000000000000e+00  5.6073030725962781e-03 8.2300113379383366e-02 0.0000000000000000e+00  5.3543470130660905e-03 7.9580470497838895e-02 0.0000000000000000e+00  5.0793911772794732e-03 7.6975676652584826e-02 0.0000000000000000e+00  4.8069284270857715e-03 7.4483487607600776e-02 0.0000000000000000e+00  4.5248761152625518e-03 7.2097251569608820e-02 0.0000000000000000e+00  4.2336458197656914e-03 6.9818253523637033e-02 0.0000000000000000e+00  3.9382988896321924e-03 6.7645322546988046e-02 0.0000000000000000e+00  3.6542698779463154e-03 6.5562373421203024e-02 0.0000000000000000e+00  3.3657168034380530e-03 6.3577020234271808e-02 0.0000000000000000e+00  3.0813343683626106e-03 6.1677963124414495e-02 0.0000000000000000e+00  2.8066754642986995e-03 5.9863007525841901e-02 0.0000000000000000e+00  2.5359187754063848e-03 5.8129725782680081e-02 0.0000000000000000e+00  2.2674388117324197e-03 5.6474390712226687e-02 0.0000000000000000e+00  2.0120734356549198e-03 5.4889947185167778e-02 0.0000000000000000e+00  1.7637313705354150e-03 5.3377685980811038e-02 0.0000000000000000e+00  1.5262053499296546e-03 5.1928470669928388e-02 0.0000000000000000e+00  1.2947267526655652e-03 5.0546035113165869e-02 0.0000000000000000e+00  1.0717955867582478e-03 4.9220393801529448e-02 0.0000000000000000e+00  8.5986651912119312e-04 4.7951272347395012e-02 0.0000000000000000e+00  6.5822780736868823e-04 4.6737743321399995e-02 0.0000000000000000e+00  4.6555217308451720e-04 4.5573857952776783e-02 0.0000000000000000e+00  2.8301253311061020e-04 4.4463800916720711e-02 0.0000000000000000e+00  1.0912301610326815e-04 4.3397128391810175e-02 0.0000000000000000e+00  -5.4277051062803165e-05 4.2372914546575845e-02 0.0000000000000000e+00  -2.1214938893164998e-04 4.1395874249327121e-02 0.0000000000000000e+00  -3.5440557818710601e-04 4.0455251666225128e-02 0.0000000000000000e+00  3.8189134407369215e-04 3.9040746360512975e-02 0.0000000000000000e+00  1.2252102079836399e-03 3.8476685763024335e-02 0.0000000000000000e+00  2.0398662405440170e-03 3.7866854088161442e-02 0.0000000000000000e+00  2.8229260255936512e-03 3.7212599335956026e-02 0.0000000000000000e+00  3.5727734237669018e-03 3.6517028834357840e-02 0.0000000000000000e+00  4.2873796524409728e-03 3.5782224347220101e-02 0.0000000000000000e+00  4.9628680114860999e-03 3.5012491727200300e-02 0.0000000000000000e+00  5.6011411218945236e-03 3.4209133147990255e-02 0.0000000000000000e+00  6.1956150764251950e-03 3.3378628596392512e-02 0.0000000000000000e+00  6.7483434240738190e-03 3.2519333068141677e-02 0.0000000000000000e+00  7.2583079818505872e-03 3.1638908058918482e-02 0.0000000000000000e+00  7.7231972922268957e-03 3.0739806272500884e-02 0.0000000000000000e+00  8.1430960781544732e-03 2.9826270415720949e-02 0.0000000000000000e+00  8.5174808015323743e-03 2.8899151111650073e-02 0.0000000000000000e+00  8.8467254519806939e-03 2.7965229837072059e-02 0.0000000000000000e+00  9.1299975385826133e-03 2.7026199230721148e-02 0.0000000000000000e+00  9.3677358381098769e-03 2.6086210359073887e-02 0.0000000000000000e+00  9.5617867436026509e-03 2.5145818675344697e-02 0.0000000000000000e+00  9.7109981382842315e-03 2.4212897681651163e-02 0.0000000000000000e+00  9.8169736440036817e-03 2.3286209173744882e-02 0.0000000000000000e+00  9.8813531234745004e-03 2.2372065126507339e-02 0.0000000000000000e+00  9.9040221013624273e-03 2.1470215498707017e-02 0.0000000000000000e+00  9.8879662489576685e-03 2.0584722661783916e-02 0.0000000000000000e+00  9.8321226277168165e-03 1.9717245216968261e-02 0.0000000000000000e+00  9.7401009924827538e-03 1.8869670817072370e-02 0.0000000000000000e+00  9.6122309804476287e-03 1.8046566162436235e-02 0.0000000000000000e+00  9.4512027170411423e-03 1.7246679142105224e-02 0.0000000000000000e+00  9.2569615874392233e-03 1.6473194236432526e-02 0.0000000000000000e+00  9.0318315894759253e-03 1.5727419676763187e-02 0.0000000000000000e+00  8.7790739430967015e-03 1.5010344770646548e-02 0.0000000000000000e+00  8.4977115046346811e-03 1.4322748687440148e-02 0.0000000000000000e+00  8.1920753508793933e-03 1.3666728764700065e-02 0.0000000000000000e+00  7.8612968457844167e-03 1.3043503285081331e-02 0.0000000000000000e+00  7.5086873930180686e-03 1.2452656639602867e-02 0.0000000000000000e+00  7.1350624217776919e-03 1.1895391419626462e-02 0.0000000000000000e+00  6.7424051613138381e-03 1.1371325321054232e-02 0.0000000000000000e+00  6.3324001979131357e-03 1.0884182154484954e-02 0.0000000000000000e+00  5.9050266118539354e-03 1.0430528144642657e-02 0.0000000000000000e+00  5.4644820832039087e-03 1.0012810574502472e-02 0.0000000000000000e+00  5.0095298183481735e-03 9.6310241589717942e-03 0.0000000000000000e+00  4.5429530669165259e-03 9.2853114048695746e-03 0.0000000000000000e+00  4.0661496000120633e-03 8.9759474010403396e-03 0.0000000000000000e+00  3.5796761903763015e-03 8.7024548225765972e-03 0.0000000000000000e+00  3.0854357101604683e-03 8.4653668860831220e-03 0.0000000000000000e+00  2.5837816202505691e-03 8.2651682220753666e-03 0.0000000000000000e+00  2.0766410559939661e-03 8.1007971076603128e-03 0.0000000000000000e+00  1.5656618157511484e-03 7.9737664976156104e-03 0.0000000000000000e+00  1.0503369537997421e-03 7.8819363205345962e-03 0.0000000000000000e+00  5.3407418626483813e-04 7.8277092522295432e-03 0.0000000000000000e+00  1.6162613062975503e-05 7.8111638534017003e-03 0.0000000000000000e+00  -5.0192631227854003e-04 7.8296403110168222e-03 0.0000000000000000e+00  -1.0184819730766513e-03 7.8852177672257134e-03 0.0000000000000000e+00  -1.5325971318530336e-03 7.9769433280101557e-03 0.0000000000000000e+00  -2.0428501141855310e-03 8.1059001528742246e-03 0.0000000000000000e+00  -2.5489923376530682e-03 8.2709626696874355e-03 0.0000000000000000e+00  -3.0485229010004298e-03 8.4725447034782689e-03 0.0000000000000000e+00  -3.5418311916428202e-03 8.7103262447443819e-03 0.0000000000000000e+00  -4.0264922657578328e-03 8.9844349160736799e-03 0.0000000000000000e+00  -4.5014826067800709e-03 9.2953870607213936e-03 0.0000000000000000e+00  -4.9663100163141729e-03 9.6420206512672219e-03 0.0000000000000000e+00  -5.4181631997673677e-03 1.0024202749385376e-02 0.0000000000000000e+00  -5.8572214769296114e-03 1.0441903260168759e-02 0.0000000000000000e+00  -6.2809891129804590e-03 1.0894797140985738e-02 0.0000000000000000e+00  -6.6887979906713252e-03 1.1382502415168229e-02 0.0000000000000000e+00  -7.0785167878562837e-03 1.1905508903868550e-02 0.0000000000000000e+00  -7.4493325237656189e-03 1.2461948968949704e-02 0.0000000000000000e+00  -7.7985170643857897e-03 1.3051213590113702e-02 0.0000000000000000e+00  -8.1253204610084555e-03 1.3673951442655955e-02 0.0000000000000000e+00  -8.4287249123312941e-03 1.4327619754920433e-02 0.0000000000000000e+00  -8.7057035010364211e-03 1.5012604067651083e-02 0.0000000000000000e+00  -8.9562476749768857e-03 1.5727439623563027e-02 0.0000000000000000e+00  -9.1776485288823130e-03 1.6471309769692879e-02 0.0000000000000000e+00  -9.3684441086614358e-03 1.7240608989737297e-02 0.0000000000000000e+00  -9.5267320851193764e-03 1.8037182406071807e-02 0.0000000000000000e+00  -9.6515286262892960e-03 1.8856952148530542e-02 0.0000000000000000e+00  -9.7414132773890813e-03 1.9700965340711300e-02 0.0000000000000000e+00  -9.7933819848217384e-03 2