<?xml version="1.0"?>
<VTKFile type="UnstructuredGrid"  version="0.1"  >
<UnstructuredGrid>
<Piece  NumberOfPoints="16275" NumberOfCells="32468">
<Points>
<DataArray  type="Float64"  NumberOfComponents="3"  format="ascii">-0.5 0.5 0  0.5 0.5 0  0.5 -0.5 0  -0.5 -0.5 0  -1 1 0  1 1 0  1 -1 0  -1 -1 0  -0.4900000000000277 0.5 0  -0.4800000000000555 0.5 0  -0.4700000000000832 0.5 0  -0.4600000000001109 0.5 0  -0.4500000000001387 0.5 0  -0.4400000000001664 0.5 0  -0.4300000000001942 0.5 0  -0.4200000000002219 0.5 0  -0.4100000000002497 0.5 0  -0.4000000000002774 0.5 0  -0.3900000000003052 0.5 0  -0.3800000000003328 0.5 0  -0.3700000000003606 0.5 0  -0.3600000000003883 0.5 0  -0.3500000000004161 0.5 0  -0.3400000000004438 0.5 0  -0.3300000000004716 0.5 0  -0.3200000000004993 0.5 0  -0.3100000000005271 0.5 0  -0.3000000000005548 0.5 0  -0.2900000000005825 0.5 0  -0.2800000000006103 0.5 0  -0.2700000000006381 0.5 0  -0.2600000000006658 0.5 0  -0.2500000000006935 0.5 0  -0.2400000000007212 0.5 0  -0.230000000000749 0.5 0  -0.2200000000007767 0.5 0  -0.2100000000008044 0.5 0  -0.2000000000008322 0.5 0  -0.19000000000086 0.5 0  -0.1800000000008877 0.5 0  -0.1700000000009154 0.5 0  -0.1600000000009431 0.5 0  -0.1500000000009709 0.5 0  -0.1400000000009986 0.5 0  -0.1300000000010264 0.5 0  -0.1200000000010541 0.5 0  -0.1100000000010818 0.5 0  -0.1000000000011096 0.5 0  -0.09000000000113734 0.5 0  -0.08000000000116503 0.5 0  -0.07000000000119283 0.5 0  -0.06000000000122058 0.5 0  -0.05000000000124827 0.5 0  -0.04000000000127607 0.5 0  -0.03000000000130376 0.5 0  -0.02000000000133151 0.5 0  -0.01000000000135925 0.5 0  -1.376121439022882e-12 0.5 0  0.009999999998640763 0.5 0  0.01999999999866864 0.5 0  0.02999999999869629 0.5 0  0.03999999999872406 0.5 0  0.04999999999875182 0.5 0  0.05999999999877947 0.5 0  0.06999999999880724 0.5 0  0.079999999998835 0.5 0  0.08999999999886266 0.5 0  0.09999999999889042 0.5 0  0.1099999999989182 0.5 0  0.1199999999989459 0.5 0  0.1299999999989737 0.5 0  0.1399999999990014 0.5 0  0.1499999999990291 0.5 0  0.1599999999990568 0.5 0  0.1699999999990847 0.5 0  0.1799999999991124 0.5 0  0.1899999999991401 0.5 0  0.1999999999991678 0.5 0  0.2099999999991955 0.5 0  0.2199999999992234 0.5 0  0.2299999999992511 0.5 0  0.2399999999992788 0.5 0  0.2499999999993066 0.5 0  0.2599999999993342 0.5 0  0.269999999999362 0.5 0  0.2799999999993897 0.5 0  0.2899999999994175 0.5 0  0.2999999999994452 0.5 0  0.3099999999994729 0.5 0  0.3199999999995007 0.5 0  0.3299999999995284 0.5 0  0.3399999999995562 0.5 0  0.3499999999995839 0.5 0  0.3599999999996116 0.5 0  0.3699999999996393 0.5 0  0.379999999999667 0.5 0  0.3899999999996949 0.5 0  0.3999999999997226 0.5 0  0.4099999999997503 0.5 0  0.419999999999778 0.5 0  0.4299999999998058 0.5 0  0.4399999999998336 0.5 0  0.4499999999998613 0.5 0  0.4599999999998891 0.5 0  0.4699999999999167 0.5 0  0.4799999999999445 0.5 0  0.4899999999999722 0.5 0  0.5 0.4900000000000277 0  0.5 0.4800000000000555 0  0.5 0.4700000000000832 0  0.5 0.4600000000001109 0  0.5 0.4500000000001387 0  0.5 0.4400000000001664 0  0.5 0.4300000000001942 0  0.5 0.4200000000002219 0  0.5 0.4100000000002497 0  0.5 0.4000000000002774 0  0.5 0.3900000000003052 0  0.5 0.3800000000003328 0  0.5 0.3700000000003606 0  0.5 0.3600000000003883 0  0.5 0.3500000000004161 0  0.5 0.3400000000004438 0  0.5 0.3300000000004716 0  0.5 0.3200000000004993 0  0.5 0.3100000000005271 0  0.5 0.3000000000005548 0  0.5 0.2900000000005825 0  0.5 0.2800000000006103 0  0.5 0.2700000000006381 0  0.5 0.2600000000006658 0  0.5 0.2500000000006935 0  0.5 0.2400000000007212 0  0.5 0.230000000000749 0  0.5 0.2200000000007767 0  0.5 0.2100000000008044 0  0.5 0.2000000000008322 0  0.5 0.19000000000086 0  0.5 0.1800000000008877 0  0.5 0.1700000000009154 0  0.5 0.1600000000009431 0  0.5 0.1500000000009709 0  0.5 0.1400000000009986 0  0.5 0.1300000000010264 0  0.5 0.1200000000010541 0  0.5 0.1100000000010818 0  0.5 0.1000000000011096 0  0.5 0.09000000000113734 0  0.5 0.08000000000116503 0  0.5 0.07000000000119283 0  0.5 0.06000000000122058 0  0.5 0.05000000000124827 0  0.5 0.04000000000127607 0  0.5 0.03000000000130376 0  0.5 0.02000000000133151 0  0.5 0.01000000000135925 0  0.5 1.376121439022882e-12 0  0.5 -0.009999999998640763 0  0.5 -0.01999999999866864 0  0.5 -0.02999999999869629 0  0.5 -0.03999999999872406 0  0.5 -0.04999999999875182 0  0.5 -0.05999999999877947 0  0.5 -0.06999999999880724 0  0.5 -0.079999999998835 0  0.5 -0.08999999999886266 0  0.5 -0.09999999999889042 0  0.5 -0.1099999999989182 0  0.5 -0.1199999999989459 0  0.5 -0.1299999999989737 0  0.5 -0.1399999999990014 0  0.5 -0.1499999999990291 0  0.5 -0.1599999999990568 0  0.5 -0.1699999999990847 0  0.5 -0.1799999999991124 0  0.5 -0.1899999999991401 0  0.5 -0.1999999999991678 0  0.5 -0.2099999999991955 0  0.5 -0.2199999999992234 0  0.5 -0.2299999999992511 0  0.5 -0.2399999999992788 0  0.5 -0.2499999999993066 0  0.5 -0.2599999999993342 0  0.5 -0.269999999999362 0  0.5 -0.2799999999993897 0  0.5 -0.2899999999994175 0  0.5 -0.2999999999994452 0  0.5 -0.3099999999994729 0  0.5 -0.3199999999995007 0  0.5 -0.3299999999995284 0  0.5 -0.3399999999995562 0  0.5 -0.3499999999995839 0  0.5 -0.3599999999996116 0  0.5 -0.3699999999996393 0  0.5 -0.379999999999667 0  0.5 -0.3899999999996949 0  0.5 -0.3999999999997226 0  0.5 -0.4099999999997503 0  0.5 -0.419999999999778 0  0.5 -0.4299999999998058 0  0.5 -0.4399999999998336 0  0.5 -0.4499999999998613 0  0.5 -0.4599999999998891 0  0.5 -0.4699999999999167 0  0.5 -0.4799999999999445 0  0.5 -0.4899999999999722 0  0.4900000000000277 -0.5 0  0.4800000000000555 -0.5 0  0.4700000000000832 -0.5 0  0.4600000000001109 -0.5 0  0.4500000000001387 -0.5 0  0.4400000000001664 -0.5 0  0.4300000000001942 -0.5 0  0.4200000000002219 -0.5 0  0.4100000000002497 -0.5 0  0.4000000000002774 -0.5 0  0.3900000000003052 -0.5 0  0.3800000000003328 -0.5 0  0.3700000000003606 -0.5 0  0.3600000000003883 -0.5 0  0.3500000000004161 -0.5 0  0.3400000000004438 -0.5 0  0.3300000000004716 -0.5 0  0.3200000000004993 -0.5 0  0.3100000000005271 -0.5 0  0.3000000000005548 -0.5 0  0.2900000000005825 -0.5 0  0.2800000000006103 -0.5 0  0.2700000000006381 -0.5 0  0.2600000000006658 -0.5 0  0.2500000000006935 -0.5 0  0.2400000000007212 -0.5 0  0.230000000000749 -0.5 0  0.2200000000007767 -0.5 0  0.2100000000008044 -0.5 0  0.2000000000008322 -0.5 0  0.19000000000086 -0.5 0  0.1800000000008877 -0.5 0  0.1700000000009154 -0.5 0  0.1600000000009431 -0.5 0  0.1500000000009709 -0.5 0  0.1400000000009986 -0.5 0  0.1300000000010264 -0.5 0  0.1200000000010541 -0.5 0  0.1100000000010818 -0.5 0  0.1000000000011096 -0.5 0  0.09000000000113734 -0.5 0  0.08000000000116503 -0.5 0  0.07000000000119283 -0.5 0  0.06000000000122058 -0.5 0  0.05000000000124827 -0.5 0  0.04000000000127607 -0.5 0  0.03000000000130376 -0.5 0  0.02000000000133151 -0.5 0  0.01000000000135925 -0.5 0  1.376121439022882e-12 -0.5 0  -0.009999999998640763 -0.5 0  -0.01999999999866864 -0.5 0  -0.02999999999869629 -0.5 0  -0.03999999999872406 -0.5 0  -0.04999999999875182 -0.5 0  -0.05999999999877947 -0.5 0  -0.06999999999880724 -0.5 0  -0.079999999998835 -0.5 0  -0.08999999999886266 -0.5 0  -0.09999999999889042 -0.5 0  -0.1099999999989182 -0.5 0  -0.1199999999989459 -0.5 0  -0.1299999999989737 -0.5 0  -0.1399999999990014 -0.5 0  -0.1499999999990291 -0.5 0  -0.1599999999990568 -0.5 0  -0.1699999999990847 -0.5 0  -0.1799999999991124 -0.5 0  -0.1899999999991401 -0.5 0  -0.1999999999991678 -0.5 0  -0.2099999999991955 -0.5 0  -0.2199999999992234 -0.5 0  -0.2299999999992511 -0.5 0  -0.2399999999992788 -0.5 0  -0.2499999999993066 -0.5 0  -0.2599999999993342 -0.5 0  -0.269999999999362 -0.5 0  -0.2799999999993897 -0.5 0  -0.2899999999994175 -0.5 0  -0.2999999999994452 -0.5 0  -0.3099999999994729 -0.5 0  -0.3199999999995007 -0.5 0  -0.3299999999995284 -0.5 0  -0.3399999999995562 -0.5 0  -0.3499999999995839 -0.5 0  -0.3599999999996116 -0.5 0  -0.3699999999996393 -0.5 0  -0.379999999999667 -0.5 0  -0.3899999999996949 -0.5 0  -0.3999999999997226 -0.5 0  -0.4099999999997503 -0.5 0  -0.419999999999778 -0.5 0  -0.4299999999998058 -0.5 0  -0.4399999999998336 -0.5 0  -0.4499999999998613 -0.5 0  -0.4599999999998891 -0.5 0  -0.4699999999999167 -0.5 0  -0.4799999999999445 -0.5 0  -0.4899999999999722 -0.5 0  -0.5 -0.4900000000000277 0  -0.5 -0.4800000000000555 0  -0.5 -0.4700000000000832 0  -0.5 -0.4600000000001109 0  -0.5 -0.4500000000001387 0  -0.5 -0.4400000000001664 0  -0.5 -0.4300000000001942 0  -0.5 -0.4200000000002219 0  -0.5 -0.4100000000002497 0  -0.5 -0.4000000000002774 0  -0.5 -0.3900000000003052 0  -0.5 -0.3800000000003328 0  -0.5 -0.3700000000003606 0  -0.5 -0.3600000000003883 0  -0.5 -0.3500000000004161 0  -0.5 -0.3400000000004438 0  -0.5 -0.3300000000004716 0  -0.5 -0.3200000000004993 0  -0.5 -0.3100000000005271 0  -0.5 -0.3000000000005548 0  -0.5 -0.2900000000005825 0  -0.5 -0.2800000000006103 0  -0.5 -0.2700000000006381 0  -0.5 -0.2600000000006658 0  -0.5 -0.2500000000006935 0  -0.5 -0.2400000000007212 0  -0.5 -0.230000000000749 0  -0.5 -0.2200000000007767 0  -0.5 -0.2100000000008044 0  -0.5 -0.2000000000008322 0  -0.5 -0.19000000000086 0  -0.5 -0.1800000000008877 0  -0.5 -0.1700000000009154 0  -0.5 -0.1600000000009431 0  -0.5 -0.1500000000009709 0  -0.5 -0.1400000000009986 0  -0.5 -0.1300000000010264 0  -0.5 -0.1200000000010541 0  -0.5 -0.1100000000010818 0  -0.5 -0.1000000000011096 0  -0.5 -0.09000000000113734 0  -0.5 -0.08000000000116503 0  -0.5 -0.07000000000119283 0  -0.5 -0.06000000000122058 0  -0.5 -0.05000000000124827 0  -0.5 -0.04000000000127607 0  -0.5 -0.03000000000130376 0  -0.5 -0.02000000000133151 0  -0.5 -0.01000000000135925 0  -0.5 -1.376121439022882e-12 0  -0.5 0.009999999998640763 0  -0.5 0.01999999999866864 0  -0.5 0.02999999999869629 0  -0.5 0.03999999999872406 0  -0.5 0.04999999999875182 0  -0.5 0.05999999999877947 0  -0.5 0.06999999999880724 0  -0.5 0.079999999998835 0  -0.5 0.08999999999886266 0  -0.5 0.09999999999889042
[...]
<PointData  Vectors="f_27-0"> 
<DataArray  type="Float64"  Name="f_27-0"  NumberOfComponents="3" format="ascii">2.7477748518723249e-04 4.5597847622934611e-02 0.0000000000000000e+00  -6.6122860804405644e-04 4.5521937759436658e-02 0.0000000000000000e+00  -1.0542941252266558e-03 3.8071529131441746e-02 0.0000000000000000e+00  1.1767645524879992e-03 3.8037274048770615e-02 0.0000000000000000e+00  -6.3172259620652782e-03 1.2860732448506274e-02 0.0000000000000000e+00  6.3289040128923328e-03 1.2880640050036240e-02 0.0000000000000000e+00  -5.2373944926412163e-03 1.1778912475248272e-02 0.0000000000000000e+00  5.2272288831345113e-03 1.1774820551088859e-02 0.0000000000000000e+00  1.3252844803938522e-03 4.4969979656480731e-02 0.0000000000000000e+00  2.3433321621982666e-03 4.4277006770596344e-02 0.0000000000000000e+00  3.3252279632485396e-03 4.3522112894892211e-02 0.0000000000000000e+00  4.2674373010109625e-03 4.2708792922942718e-02 0.0000000000000000e+00  5.1667292597473765e-03 4.1840898226100300e-02 0.0000000000000000e+00  6.0201780688583567e-03 4.0922557037239148e-02 0.0000000000000000e+00  6.8251636169641165e-03 3.9958222556780380e-02 0.0000000000000000e+00  7.5793790286512973e-03 3.8952458265720462e-02 0.0000000000000000e+00  8.2808984912851082e-03 3.7909990311591243e-02 0.0000000000000000e+00  8.9281294756391964e-03 3.6835749904392312e-02 0.0000000000000000e+00  9.5198606363715889e-03 3.5734655965540138e-02 0.0000000000000000e+00  1.0055195187068660e-02 3.4611588238727189e-02 0.0000000000000000e+00  1.0533587408784698e-02 3.3471487395944965e-02 0.0000000000000000e+00  1.0954840385951875e-02 3.2319160400426435e-02 0.0000000000000000e+00  1.1319064864291038e-02 3.1159373070100294e-02 0.0000000000000000e+00  1.1626687406744739e-02 2.9996648320846725e-02 0.0000000000000000e+00  1.1878385306926722e-02 2.8835398617840020e-02 0.0000000000000000e+00  1.2075127048904656e-02 2.7679863930609762e-02 0.0000000000000000e+00  1.2218078696340829e-02 2.6533991596157984e-02 0.0000000000000000e+00  1.2308631407130047e-02 2.5401508252655455e-02 0.0000000000000000e+00  1.2348346121620501e-02 2.4285950441482084e-02 0.0000000000000000e+00  1.2338955817532447e-02 2.3190506734401116e-02 0.0000000000000000e+00  1.2282320560124949e-02 2.2118178019122012e-02 0.0000000000000000e+00  1.2180390438265775e-02 2.1071708175594478e-02 0.0000000000000000e+00  1.2035212335800736e-02 2.0053508223689516e-02 0.0000000000000000e+00  1.1848864775509369e-02 1.9065805470324888e-02 0.0000000000000000e+00  1.1623503311178045e-02 1.8110539712535623e-02 0.0000000000000000e+00  1.1361269599738884e-02 1.7189446009340803e-02 0.0000000000000000e+00  1.1064327990366617e-02 1.6304031036279559e-02 0.0000000000000000e+00  1.0734825512469404e-02 1.5455567292129355e-02 0.0000000000000000e+00  1.0374853323750863e-02 1.4645164138611657e-02 0.0000000000000000e+00  9.9865124550213551e-03 1.3873750364367022e-02 0.0000000000000000e+00  9.5718154162369277e-03 1.3142090660222023e-02 0.0000000000000000e+00  9.1327382285181190e-03 1.2450770944357552e-02 0.0000000000000000e+00  8.6711838324672105e-03 1.1800289609756600e-02 0.0000000000000000e+00  8.1890019400948748e-03 1.1190999829301284e-02 0.0000000000000000e+00  7.6879642605611666e-03 1.0623194093814193e-02 0.0000000000000000e+00  7.1697693466493857e-03 1.0097034354405988e-02 0.0000000000000000e+00  6.6360515643206939e-03 9.6126272158170711e-03 0.0000000000000000e+00  6.0883804100328809e-03 9.1700419471837779e-03 0.0000000000000000e+00  5.5282402117080090e-03 8.7692691221443221e-03 0.0000000000000000e+00  4.9570660670972657e-03 8.4102788320735804e-03 0.0000000000000000e+00  4.3762274224171255e-03 8.0930230638056981e-03 0.0000000000000000e+00  3.7870533757290584e-03 7.8174173747269926e-03 0.0000000000000000e+00  3.1907983967352236e-03 7.5833934430711058e-03 0.0000000000000000e+00  2.5886820399780267e-03 7.3908510285746239e-03 0.0000000000000000e+00  1.9819089529450468e-03 7.2397369149880958e-03 0.0000000000000000e+00  1.3716150516378410e-03 7.1299696860322838e-03 0.0000000000000000e+00  7.5893761605536850e-04 7.0614860467535919e-03 0.0000000000000000e+00  1.4498866692661401e-04 7.0342685004322189e-03 0.0000000000000000e+00  -4.6912844183675411e-04 7.0482879574801814e-03 0.0000000000000000e+00  -1.0823053284151015e-03 7.1035318623587753e-03 0.0000000000000000e+00  -1.6934478331438975e-03 7.2000290737642084e-03 0.0000000000000000e+00  -2.3014234039658117e-03 7.3378147652185489e-03 0.0000000000000000e+00  -2.9051111718069547e-03 7.5169386067879566e-03 0.0000000000000000e+00  -3.5033302393370665e-03 7.7374475269332537e-03 0.0000000000000000e+00  -4.0948873940802235e-03 7.9994226257441067e-03 0.0000000000000000e+00  -4.6785440936167938e-03 8.3029307640091702e-03 0.0000000000000000e+00  -5.2530205122901501e-03 8.6480382096880883e-03 0.0000000000000000e+00  -5.8169808007975544e-03 9.0347874086162197e-03 0.0000000000000000e+00  -6.3690263248705539e-03 9.4632305388397207e-03 0.0000000000000000e+00  -6.9077215224717719e-03 9.9333485102330223e-03 0.0000000000000000e+00  -7.4315251681822255e-03 1.0445110905838337e-02 0.0000000000000000e+00  -7.9388712465813024e-03 1.0998431017446688e-02 0.0000000000000000e+00  -8.4280995826782109e-03 1.1593154758467504e-02 0.0000000000000000e+00  -8.8974893587332095e-03 1.2229049599254848e-02 0.0000000000000000e+00  -9.3452613491628138e-03 1.2905785758987506e-02 0.0000000000000000e+00  -9.7695259991887988e-03 1.3622938231482700e-02 0.0000000000000000e+00  -1.0168398328422172e-02 1.4379966268571888e-02 0.0000000000000000e+00  -1.0539859142861950e-02 1.5176170950852070e-02 0.0000000000000000e+00  -1.0881905417202220e-02 1.6010730944813065e-02 0.0000000000000000e+00  -1.1192443942853429e-02 1.6882629953970416e-02 0.0000000000000000e+00  -1.1469349698602005e-02 1.7790657203849113e-02 0.0000000000000000e+00  -1.1710511481235258e-02 1.8733462726945312e-02 0.0000000000000000e+00  -1.1913761511455064e-02 1.9709433846532350e-02 0.0000000000000000e+00  -1.2076979343400058e-02 2.0716736865427819e-02 0.0000000000000000e+00  -1.2198044498548496e-02 2.1753319425252243e-02 0.0000000000000000e+00  -1.2274888153885751e-02 2.2816830400090769e-02 0.0000000000000000e+00  -1.2305504390074593e-02 2.3904767990632965e-02 0.0000000000000000e+00  -1.2287974560910801e-02 2.5014264212240681e-02 0.0000000000000000e+00  -1.2220510948431950e-02 2.6142249900167738e-02 0.0000000000000000e+00  -1.2101409317439110e-02 2.7285380343312852e-02 0.0000000000000000e+00  -1.1929200611811309e-02 2.8440033855762045e-02 0.0000000000000000e+00  -1.1702548360761260e-02 2.9602414276036795e-02 0.0000000000000000e+00  -1.1420344964566969e-02 3.0768358673916134e-02 0.0000000000000000e+00  -1.1081717053445912e-02 3.1933657048075714e-02 0.0000000000000000e+00  -1.0686077858748042e-02 3.3093777692011654e-02 0.0000000000000000e+00  -1.0233089887369108e-02 3.4244101332499520e-02 0.0000000000000000e+00  -9.7227549034532637e-03 3.5379770213226733e-02 0.0000000000000000e+00  -9.1553720653173645e-03 3.6495926949833273e-02 0.0000000000000000e+00  -8.5316030675652212e-03 3.7587611073727156e-02 0.0000000000000000e+00  -7.8524204589418192e-03 3.8649891423798356e-02 0.0000000000000000e+00  -7.1192203918705376e-03 3.9677778718601772e-02 0.0000000000000000e+00  -6.3336851001787459e-03 4.0666394128339722e-02 0.0000000000000000e+00  -5.4979121247776220e-03 4.1611003258799434e-02 0.0000000000000000e+00  -4.6143014760856495e-03 4.2506967519759700e-02 0.0000000000000000e+00  -3.6855981804507980e-03 4.3350007135585275e-02 0.0000000000000000e+00  -2.7148898963266746e-03 4.4135975752119583e-02 0.0000000000000000e+00  -1.7055729803958860e-03 4.4861089853098786e-02 0.0000000000000000e+00  -8.4433988272616576e-04 4.6604346454842266e-02 0.0000000000000000e+00  -1.0341479675257024e-03 4.7731442039146643e-02 0.0000000000000000e+00  -1.2297394629304742e-03 4.8904646472326792e-02 0.0000000000000000e+00  -1.4300157835823862e-03 5.0125317992481412e-02 0.0000000000000000e+00  -1.6336323696694499e-03 5.1394795200528504e-02 0.0000000000000000e+00  -1.8389386971790339e-03 5.2714220508562767e-02 0.0000000000000000e+00  -2.0440720447240587e-03 5.4084579641902442e-02 0.0000000000000000e+00  -2.2467349760103110e-03 5.5506929466685929e-02 0.0000000000000000e+00  -2.4444451052958427e-03 5.6981737360430232e-02 0.0000000000000000e+00  -2.6342370924435149e-03 5.8509387224433509e-02 0.0000000000000000e+00  -2.8128889033075537e-03 6.0090033127024829e-02 0.0000000000000000e+00  -2.9769240041258990e-03 6.1723303195667517e-02 0.0000000000000000e+00  -3.1225402999226779e-03 6.3408571445865078e-02 0.0000000000000000e+00  -3.2457682143390617e-03 6.5144549116952347e-02 0.0000000000000000e+00  -3.3425505426516000e-03 6.6929595506146147e-02 0.0000000000000000e+00  -3.4088203842380770e-03 6.8761429637422419e-02 0.0000000000000000e+00  -3.4406972998504560e-03 7.0637161980965035e-02 0.0000000000000000e+00  -3.4346979422100123e-03 7.2553274755853991e-02 0.0000000000000000e+00  -3.3878515749287933e-03 7.4505406849743674e-02 0.0000000000000000e+00  -3.2979637117778187e-03 7.6488549450771187e-02 0.0000000000000000e+00  -3.1639508306382041e-03 7.8497150075292663e-02 0.0000000000000000e+00  -2.9859409055085664e-03 8.0524605214388215e-02 0.0000000000000000e+00  -2.7656013285292072e-03 8.2563803734702568e-02 0.0000000000000000e+00  -2.5062553278344200e-03 8.4606753167457499e-02 0.0000000000000000e+00  -2.2130337239489178e-03 8.6645147312656462e-02 0.0000000000000000e+00  -1.8929080495099714e-03 8.8669827212005739e-02 0.0000000000000000e+00  -1.5546347958389623e-03 9.0671284017841816e-02 0.0000000000000000e+00  -1.2086373665582942e-03 9.2639508549493807e-02 0.0000000000000000e+00  -8.6649651836634390e-04 9.4564624742077844e-02 0.0000000000000000e+00  -5.4088115263241322e-04 9.6436177102995693e-02 0.0000000000000000e+00  -2.4459109727453132e-04 9.8243994794106393e-02 0.0000000000000000e+00  9.7904982175616018e-06 9.9978029117503697e-02 0.0000000000000000e+00  2.1076551626121479e-04 1.0162855917877681e-01 0.0000000000000000e+00  3.4847713072540389e-04 1.0318621867501153e-01 0.0000000000000000e+00  4.1558552789674585e-04 1.0464239324594264e-01 0.0000000000000000e+00  4.0757551624835681e-04 1.0598884303210014e-01 0.0000000000000000e+00  3.2358668302378716e-04 1.0721825663265745e-01 0.0000000000000000e+00  1.6612478583053454e-04 1.0832409903579265e-01 0.0000000000000000e+00  -5.8657952384233703e-05 1.0930065383652801e-01 0.0000000000000000e+00  -3.4107553947120781e-04 1.1014291587944743e-01 0.0000000000000000e+00  -6.6883076252691773e-04 1.1084697975552843e-01 0.0000000000000000e+00  -1.0272812430935578e-03 1.1140965062427044e-01 0.0000000000000000e+00  -1.4001917292389956e-03 1.1182841473043305e-01 0.0000000000000000e+00  -1.7710368983853354e-03 1.1210174397596308e-01 0.0000000000000000e+00  -2.1235320244269297e-03 1.1222885704143905e-01 0.0000000000000000e+00  -2.4425713152965980e-03 1.1220968849730617e-01 0.0000000000000000e+00  -2.7148514862559738e-03 1.1204479237822937e-01 0.0000000000000000e+00  -2.9296669274120435e-03 1.1173570774571140e-01 0.0000000000000000e+00  -3.0791226469315241e-03 1.1128457378244694e-01 0.0000000000000000e+00  -3.1581134299756282e-03 1.1069428513680353e-01 0.0000000000000000e+00  -3.1647464268410547e-03 1.0996842240755660e-01 0.0000000000000000e+00  -3.1000955634523544e-03 1.0911145627944639e-01 0.0000000000000000e+00  -2.9676302302664779e-03 1.0812853196003690e-01 0.0000000000000000e+00  -2.7729270493439132e-03 1.0702541778080768e-01 0.0000000000000000e+00  -2.5233654677121065e-03 1.0580853741098642e-01 0.0000000000000000e+00  -2.2277404526850611e-03 1.0448501912010132e-01 0.0000000000000000e+00  -1.8956042744143150e-03 1.0306257407747879e-01 0.0000000000000000e+00  -1.5369163000118762e-03 1.0154921012527647e-01 0.0000000000000000e+00  -1.1614820787981793e-03 9.9953511120305677e-02 0.0000000000000000e+00  -7.7882341803379659e-04 9.8284167731154698e-02 0.0000000000000000e+00  -3.9763597406812425e-04 9.6550067822394961e-02 0.0000000000000000e+00  -2.6085669221651526e-05 9.4760187427286507e-02 0.0000000000000000e+00  3.2891500529346401e-04 9.2923520603096901e-02 0.0000000000000000e+00  6.6149728046146518e-04 9.1048780367387991e-02 0.0000000000000000e+00  9.6677730663252204e-04 8.9144713713347964e-02 0.0000000000000000e+00  1.2411999215242876e-03 8.7219473337950923e-02 0.0000000000000000e+00  1.4822016242334141e-03 8.5280934946348100e-02 0.0000000000000000e+00  1.6881973474163511e-03 8.3336647609963871e-02 0.0000000000000000e+00  1.8584323882977103e-03 8.1393529792062269e-02 0.0000000000000000e+00  1.9930235472344362e-03 7.9458128167721603e-02 0.0000000000000000e+00  2.0927775958809402e-03 7.7536201760575782e-02 0.0000000000000000e+00  2.1589048375258843e-03 7.5633340974769703e-02 0.0000000000000000e+00  2.1932518805197524e-03 7.3754127667245414e-02 0.0000000000000000e+00  2.1980718910279192e-03 7.1902971121040632e-02 0.0000000000000000e+00  2.1756765374946851e-03 7.0083473549064829e-02 0.0000000000000000e+00  2.1285298568093727e-03 6.8298935582708636e-02 0.0000000000000000e+00  2.0594569709220119e-03 6.6551898575448049e-02 0.0000000000000000e+00  1.9708250624658956e-03 6.4844760468180565e-02 0.0000000000000000e+00  1.8654191161924043e-03 6.3179234417504268e-02 0.0000000000000000e+00  1.7457640519921616e-03 6.1556647473436144e-02 0.0000000000000000e+00  1.6142303741422186e-03 5.9978107246515762e-02 0.0000000000000000e+00  1.4730961732003795e-03 5.8444282396227988e-02 0.0000000000000000e+00  1.3244998230941176e-03 5.6955528576500700e-02 0.0000000000000000e+00  1.1704181761041073e-03 5.5512029579452601e-02 0.0000000000000000e+00  1.0125610052467344e-03 5.4113629149174995e-02 0.0000000000000000e+00  8.5260954566942246e-04 5.2760087398058125e-02 0.0000000000000000e+00  6.9202773232164929e-04 5.1450850596444928e-02 0.0000000000000000e+00  5.3203318683935129e-04 5.0185370961573300e-02 0.0000000000000000e+00  3.7376946181608790e-04 4.8962835349209748e-02 0.0000000000000000e+00  2.1820775083093591e-04 4.7782439977291480e-02 0.0000000000000000e+00  6.6231886718483589e-05 4.6643250344322873e-02 0.0000000000000000e+00  -8.1444881903225592e-05 4.5544251455600655e-02 0.0000000000000000e+00  -2.2422558916728838e-04 4.4484450924285754e-02 0.0000000000000000e+00  -3.6162764139629713e-04 4.3462759261546247e-02 0.0000000000000000e+00  -4.9315365417212584e-04 4.2478064389588219e-02 0.0000000000000000e+00  -6.1855701969087463e-04 4.1529305637006651e-02 0.0000000000000000e+00  -7.3754773498256371e-04 4.0615364003275561e-02 0.0000000000000000e+00  -8.4989835085544623e-04 3.9735129755558103e-02 0.0000000000000000e+00  -9.5551929718934979e-04 3.8887531592482823e-02 0.0000000000000000e+00  -2.6423498311951604e-04 3.7613882417134981e-02 0.0000000000000000e+00  5.0319954087026911e-04 3.7111492945947677e-02 0.0000000000000000e+00  1.2458294735625370e-03 3.6566200438058763e-02 0.0000000000000000e+00  1.9614558409735525e-03 3.5980054309153499e-02 0.0000000000000000e+00  2.6481029423320035e-03 3.5355280339924411e-02 0.0000000000000000e+00  3.3038629187207725e-03 3.4694325290025425e-02 0.0000000000000000e+00  3.9270333512317571e-03 3.3999735043212236e-02 0.0000000000000000e+00  4.5160208615977705e-03 3.3274276077912016e-02 0.0000000000000000e+00  5.0694339126355018e-03 3.2520751598873646e-02 0.0000000000000000e+00  5.5860790874564014e-03 3.1742109969867011e-02 0.0000000000000000e+00  6.0649085536337369e-03 3.0941386893189537e-02 0.0000000000000000e+00  6.5050689069487532e-03 3.0121638646629145e-02 0.0000000000000000e+00  6.9059053696105309e-03 2.9285974750598409e-02 0.0000000000000000e+00  7.2669287046589880e-03 2.8437520004660880e-02 0.0000000000000000e+00  7.5878832653754145e-03 2.7579355043121978e-02 0.0000000000000000e+00  7.8686413934190898e-03 2.6714566264924366e-02 0.0000000000000000e+00  8.1092744863615323e-03 2.5846188307722371e-02 0.0000000000000000e+00  8.3100322719782006e-03 2.4977182272252364e-02 0.0000000000000000e+00  8.4712943805896560e-03 2.4110400503604763e-02 0.0000000000000000e+00  8.5936026491819709e-03 2.3248645809954990e-02 0.0000000000000000e+00  8.6776430431805517e-03 2.2394608105942564e-02 0.0000000000000000e+00  8.7242209862009919e-03 2.1550825879142338e-02 0.0000000000000000e+00  8.7342649935818004e-03 2.0719754129906714e-02 0.0000000000000000e+00  8.7088028378400333e-03 1.9903673398904569e-02 0.0000000000000000e+00  8.6489561152883372e-03 1.9104761139357510e-02 0.0000000000000000e+00  8.5559031578728052e-03 1.8325049715196329e-02 0.0000000000000000e+00  8.4309299320849164e-03 1.7566417569048615e-02 0.0000000000000000e+00  8.2753429703817140e-03 1.6830590817220003e-02 0.0000000000000000e+00  8.0905175743574958e-03 1.6119227981398219e-02 0.0000000000000000e+00  7.8778488983013879e-03 1.5433759539916232e-02 0.0000000000000000e+00  7.6387564314214325e-03 1.4775524439735260e-02 0.0000000000000000e+00  7.3746985178404752e-03 1.4145749033122783e-02 0.0000000000000000e+00  7.0871116393423387e-03 1.3545518542679187e-02 0.0000000000000000e+00  6.7774505580999603e-03 1.2975803837231060e-02 0.0000000000000000e+00  6.4471676001890662e-03 1.2437485599218652e-02 0.0000000000000000e+00  6.0977026980750960e-03 1.1931323087083581e-02 0.0000000000000000e+00  5.7304731687037279e-03 1.1457993226342162e-02 0.0000000000000000e+00  5.3468918798797614e-03 1.1018082048837256e-02 0.0000000000000000e+00  4.9483459844460575e-03 1.0612104382050531e-02 0.0000000000000000e+00  4.5362030276300492e-03 1.0240483279590507e-02 0.0000000000000000e+00  4.1118016544139007e-03 9.9036118545526575e-03 0.0000000000000000e+00  3.6764569525047750e-03 9.6018184855286917e-03 0.0000000000000000e+00  3.2314729565174633e-03 9.3353245208416449e-03 0.0000000000000000e+00  2.7781362167808459e-03 9.1043733571190312e-03 0.0000000000000000e+00  2.3176892497433952e-03 8.9091472018825446e-03 0.0000000000000000e+00  1.8513786372690111e-03 8.7497767199200185e-03 0.0000000000000000e+00  1.3804239294363050e-03 8.6263717678668039e-03 0.0000000000000000e+00  9.0604623433347372e-04 8.5390343854261121e-03 0.0000000000000000e+00  4.2942634871358969e-04 8.4878050200630217e-03 0.0000000000000000e+00  -4.8221432884422574e-05 8.4727066125177952e-03 0.0000000000000000e+00  -5.2571248876080333e-04 8.4937509003818485e-03 0.0000000000000000e+00  -1.0018538785752085e-03 8.5509323835884481e-03 0.0000000000000000e+00  -1.4754533665288930e-03 8.6442075496938938e-03 0.0000000000000000e+00  -1.9453035237664634e-03 8.7734980528559030e-03 0.0000000000000000e+00  -2.4102002340418926e-03 8.9387065474996440e-03 0.0000000000000000e+00  -2.8689119845061719e-03 9.1397113650086952e-03 0.0000000000000000e+00  -3.3201950376401937e-03 9.3763660661412042e-03 0.0000000000000000e+00  -3.7627939109093830e-03 9.6484849319577130e-03 0.0000000000000000e+00  -4.1954284335450594e-03 9.9558270917479881e-03 0.0000000000000000e+00  -4.6168010950116290e-03 1.0298114613565459e-02 0.0000000000000000e+00  -5.0255895077571033e-03 1.0674998675390662e-02 0.0000000000000000e+00  -5.4204482643863041e-03 1.1086100337992332e-02 0.0000000000000000e+00  -5.8000120808317079e-03 1.1530960295618668e-02 0.0000000000000000e+00  -6.1628938298131956e-03 1.2009041172854054e-02 0.0000000000000000e+00  -6.5076852734322664e-03 1.2519749745008550e-02 0.0000000000000000e+00  -6.8329786800701503e-03 1.3062381669338048e-02 0.0000000000000000e+00  -7.1373288614085288e-03 1.3636116963616359e-02 0.0000000000000000e+00  -7.4193016182192680e-03 1.4240076723684669e-02 0.0000000000000000e+00  -7.6774479510149712e-03 1.4873271473205182e-02 0.0000000000000000e+00  -7.9103360755894952e-03 1.5534567604692750e-02 0.0000000000000000e+00  -8.1165348143233951e-03 1.6222716939420210e-02 0.0000000000000000e+00  -8.2946375505276795e-03 1.6936403344127410e-02 0.0000000000000000e+00  -8.4432596287313377e-03 1.7674074401831240e-02 0.0000000000000000e+00  -8.5610666758964369e-03 1.8434111163825054e-02 0.0000000000000000e+00  -8.6467641288867376e-03 1.9214748376592785e-02 0.0000000000000000e+00  -8.6991129984615983e-03 2.0014069485979127e-02 0.0000000000000000e+00  -8.7