<?xml version="1.0"?>
<VTKFile type="UnstructuredGrid"  version="0.1"  >
<UnstructuredGrid>
<Piece  NumberOfPoints="16275" NumberOfCells="32468">
<Points>
<DataArray  type="Float64"  NumberOfComponents="3"  format="ascii">-0.5 0.5 0  0.5 0.5 0  0.5 -0.5 0  -0.5 -0.5 0  -1 1 0  1 1 0  1 -1 0  -1 -1 0  -0.4900000000000277 0.5 0  -0.4800000000000555 0.5 0  -0.4700000000000832 0.5 0  -0.4600000000001109 0.5 0  -0.4500000000001387 0.5 0  -0.4400000000001664 0.5 0  -0.4300000000001942 0.5 0  -0.4200000000002219 0.5 0  -0.4100000000002497 0.5 0  -0.4000000000002774 0.5 0  -0.3900000000003052 0.5 0  -0.3800000000003328 0.5 0  -0.3700000000003606 0.5 0  -0.3600000000003883 0.5 0  -0.3500000000004161 0.5 0  -0.3400000000004438 0.5 0  -0.3300000000004716 0.5 0  -0.3200000000004993 0.5 0  -0.3100000000005271 0.5 0  -0.3000000000005548 0.5 0  -0.2900000000005825 0.5 0  -0.2800000000006103 0.5 0  -0.2700000000006381 0.5 0  -0.2600000000006658 0.5 0  -0.2500000000006935 0.5 0  -0.2400000000007212 0.5 0  -0.230000000000749 0.5 0  -0.2200000000007767 0.5 0  -0.2100000000008044 0.5 0  -0.2000000000008322 0.5 0  -0.19000000000086 0.5 0  -0.1800000000008877 0.5 0  -0.1700000000009154 0.5 0  -0.1600000000009431 0.5 0  -0.1500000000009709 0.5 0  -0.1400000000009986 0.5 0  -0.1300000000010264 0.5 0  -0.1200000000010541 0.5 0  -0.1100000000010818 0.5 0  -0.1000000000011096 0.5 0  -0.09000000000113734 0.5 0  -0.08000000000116503 0.5 0  -0.07000000000119283 0.5 0  -0.06000000000122058 0.5 0  -0.05000000000124827 0.5 0  -0.04000000000127607 0.5 0  -0.03000000000130376 0.5 0  -0.02000000000133151 0.5 0  -0.01000000000135925 0.5 0  -1.376121439022882e-12 0.5 0  0.009999999998640763 0.5 0  0.01999999999866864 0.5 0  0.02999999999869629 0.5 0  0.03999999999872406 0.5 0  0.04999999999875182 0.5 0  0.05999999999877947 0.5 0  0.06999999999880724 0.5 0  0.079999999998835 0.5 0  0.08999999999886266 0.5 0  0.09999999999889042 0.5 0  0.1099999999989182 0.5 0  0.1199999999989459 0.5 0  0.1299999999989737 0.5 0  0.1399999999990014 0.5 0  0.1499999999990291 0.5 0  0.1599999999990568 0.5 0  0.1699999999990847 0.5 0  0.1799999999991124 0.5 0  0.1899999999991401 0.5 0  0.1999999999991678 0.5 0  0.2099999999991955 0.5 0  0.2199999999992234 0.5 0  0.2299999999992511 0.5 0  0.2399999999992788 0.5 0  0.2499999999993066 0.5 0  0.2599999999993342 0.5 0  0.269999999999362 0.5 0  0.2799999999993897 0.5 0  0.2899999999994175 0.5 0  0.2999999999994452 0.5 0  0.3099999999994729 0.5 0  0.3199999999995007 0.5 0  0.3299999999995284 0.5 0  0.3399999999995562 0.5 0  0.3499999999995839 0.5 0  0.3599999999996116 0.5 0  0.3699999999996393 0.5 0  0.379999999999667 0.5 0  0.3899999999996949 0.5 0  0.3999999999997226 0.5 0  0.4099999999997503 0.5 0  0.419999999999778 0.5 0  0.4299999999998058 0.5 0  0.4399999999998336 0.5 0  0.4499999999998613 0.5 0  0.4599999999998891 0.5 0  0.4699999999999167 0.5 0  0.4799999999999445 0.5 0  0.4899999999999722 0.5 0  0.5 0.4900000000000277 0  0.5 0.4800000000000555 0  0.5 0.4700000000000832 0  0.5 0.4600000000001109 0  0.5 0.4500000000001387 0  0.5 0.4400000000001664 0  0.5 0.4300000000001942 0  0.5 0.4200000000002219 0  0.5 0.4100000000002497 0  0.5 0.4000000000002774 0  0.5 0.3900000000003052 0  0.5 0.3800000000003328 0  0.5 0.3700000000003606 0  0.5 0.3600000000003883 0  0.5 0.3500000000004161 0  0.5 0.3400000000004438 0  0.5 0.3300000000004716 0  0.5 0.3200000000004993 0  0.5 0.3100000000005271 0  0.5 0.3000000000005548 0  0.5 0.2900000000005825 0  0.5 0.2800000000006103 0  0.5 0.2700000000006381 0  0.5 0.2600000000006658 0  0.5 0.2500000000006935 0  0.5 0.2400000000007212 0  0.5 0.230000000000749 0  0.5 0.2200000000007767 0  0.5 0.2100000000008044 0  0.5 0.2000000000008322 0  0.5 0.19000000000086 0  0.5 0.1800000000008877 0  0.5 0.1700000000009154 0  0.5 0.1600000000009431 0  0.5 0.1500000000009709 0  0.5 0.1400000000009986 0  0.5 0.1300000000010264 0  0.5 0.1200000000010541 0  0.5 0.1100000000010818 0  0.5 0.1000000000011096 0  0.5 0.09000000000113734 0  0.5 0.08000000000116503 0  0.5 0.07000000000119283 0  0.5 0.06000000000122058 0  0.5 0.05000000000124827 0  0.5 0.04000000000127607 0  0.5 0.03000000000130376 0  0.5 0.02000000000133151 0  0.5 0.01000000000135925 0  0.5 1.376121439022882e-12 0  0.5 -0.009999999998640763 0  0.5 -0.01999999999866864 0  0.5 -0.02999999999869629 0  0.5 -0.03999999999872406 0  0.5 -0.04999999999875182 0  0.5 -0.05999999999877947 0  0.5 -0.06999999999880724 0  0.5 -0.079999999998835 0  0.5 -0.08999999999886266 0  0.5 -0.09999999999889042 0  0.5 -0.1099999999989182 0  0.5 -0.1199999999989459 0  0.5 -0.1299999999989737 0  0.5 -0.1399999999990014 0  0.5 -0.1499999999990291 0  0.5 -0.1599999999990568 0  0.5 -0.1699999999990847 0  0.5 -0.1799999999991124 0  0.5 -0.1899999999991401 0  0.5 -0.1999999999991678 0  0.5 -0.2099999999991955 0  0.5 -0.2199999999992234 0  0.5 -0.2299999999992511 0  0.5 -0.2399999999992788 0  0.5 -0.2499999999993066 0  0.5 -0.2599999999993342 0  0.5 -0.269999999999362 0  0.5 -0.2799999999993897 0  0.5 -0.2899999999994175 0  0.5 -0.2999999999994452 0  0.5 -0.3099999999994729 0  0.5 -0.3199999999995007 0  0.5 -0.3299999999995284 0  0.5 -0.3399999999995562 0  0.5 -0.3499999999995839 0  0.5 -0.3599999999996116 0  0.5 -0.3699999999996393 0  0.5 -0.379999999999667 0  0.5 -0.3899999999996949 0  0.5 -0.3999999999997226 0  0.5 -0.4099999999997503 0  0.5 -0.419999999999778 0  0.5 -0.4299999999998058 0  0.5 -0.4399999999998336 0  0.5 -0.4499999999998613 0  0.5 -0.4599999999998891 0  0.5 -0.4699999999999167 0  0.5 -0.4799999999999445 0  0.5 -0.4899999999999722 0  0.4900000000000277 -0.5 0  0.4800000000000555 -0.5 0  0.4700000000000832 -0.5 0  0.4600000000001109 -0.5 0  0.4500000000001387 -0.5 0  0.4400000000001664 -0.5 0  0.4300000000001942 -0.5 0  0.4200000000002219 -0.5 0  0.4100000000002497 -0.5 0  0.4000000000002774 -0.5 0  0.3900000000003052 -0.5 0  0.3800000000003328 -0.5 0  0.3700000000003606 -0.5 0  0.3600000000003883 -0.5 0  0.3500000000004161 -0.5 0  0.3400000000004438 -0.5 0  0.3300000000004716 -0.5 0  0.3200000000004993 -0.5 0  0.3100000000005271 -0.5 0  0.3000000000005548 -0.5 0  0.2900000000005825 -0.5 0  0.2800000000006103 -0.5 0  0.2700000000006381 -0.5 0  0.2600000000006658 -0.5 0  0.2500000000006935 -0.5 0  0.2400000000007212 -0.5 0  0.230000000000749 -0.5 0  0.2200000000007767 -0.5 0  0.2100000000008044 -0.5 0  0.2000000000008322 -0.5 0  0.19000000000086 -0.5 0  0.1800000000008877 -0.5 0  0.1700000000009154 -0.5 0  0.1600000000009431 -0.5 0  0.1500000000009709 -0.5 0  0.1400000000009986 -0.5 0  0.1300000000010264 -0.5 0  0.1200000000010541 -0.5 0  0.1100000000010818 -0.5 0  0.1000000000011096 -0.5 0  0.09000000000113734 -0.5 0  0.08000000000116503 -0.5 0  0.07000000000119283 -0.5 0  0.06000000000122058 -0.5 0  0.05000000000124827 -0.5 0  0.04000000000127607 -0.5 0  0.03000000000130376 -0.5 0  0.02000000000133151 -0.5 0  0.01000000000135925 -0.5 0  1.376121439022882e-12 -0.5 0  -0.009999999998640763 -0.5 0  -0.01999999999866864 -0.5 0  -0.02999999999869629 -0.5 0  -0.03999999999872406 -0.5 0  -0.04999999999875182 -0.5 0  -0.05999999999877947 -0.5 0  -0.06999999999880724 -0.5 0  -0.079999999998835 -0.5 0  -0.08999999999886266 -0.5 0  -0.09999999999889042 -0.5 0  -0.1099999999989182 -0.5 0  -0.1199999999989459 -0.5 0  -0.1299999999989737 -0.5 0  -0.1399999999990014 -0.5 0  -0.1499999999990291 -0.5 0  -0.1599999999990568 -0.5 0  -0.1699999999990847 -0.5 0  -0.1799999999991124 -0.5 0  -0.1899999999991401 -0.5 0  -0.1999999999991678 -0.5 0  -0.2099999999991955 -0.5 0  -0.2199999999992234 -0.5 0  -0.2299999999992511 -0.5 0  -0.2399999999992788 -0.5 0  -0.2499999999993066 -0.5 0  -0.2599999999993342 -0.5 0  -0.269999999999362 -0.5 0  -0.2799999999993897 -0.5 0  -0.2899999999994175 -0.5 0  -0.2999999999994452 -0.5 0  -0.3099999999994729 -0.5 0  -0.3199999999995007 -0.5 0  -0.3299999999995284 -0.5 0  -0.3399999999995562 -0.5 0  -0.3499999999995839 -0.5 0  -0.3599999999996116 -0.5 0  -0.3699999999996393 -0.5 0  -0.379999999999667 -0.5 0  -0.3899999999996949 -0.5 0  -0.3999999999997226 -0.5 0  -0.4099999999997503 -0.5 0  -0.419999999999778 -0.5 0  -0.4299999999998058 -0.5 0  -0.4399999999998336 -0.5 0  -0.4499999999998613 -0.5 0  -0.4599999999998891 -0.5 0  -0.4699999999999167 -0.5 0  -0.4799999999999445 -0.5 0  -0.4899999999999722 -0.5 0  -0.5 -0.4900000000000277 0  -0.5 -0.4800000000000555 0  -0.5 -0.4700000000000832 0  -0.5 -0.4600000000001109 0  -0.5 -0.4500000000001387 0  -0.5 -0.4400000000001664 0  -0.5 -0.4300000000001942 0  -0.5 -0.4200000000002219 0  -0.5 -0.4100000000002497 0  -0.5 -0.4000000000002774 0  -0.5 -0.3900000000003052 0  -0.5 -0.3800000000003328 0  -0.5 -0.3700000000003606 0  -0.5 -0.3600000000003883 0  -0.5 -0.3500000000004161 0  -0.5 -0.3400000000004438 0  -0.5 -0.3300000000004716 0  -0.5 -0.3200000000004993 0  -0.5 -0.3100000000005271 0  -0.5 -0.3000000000005548 0  -0.5 -0.2900000000005825 0  -0.5 -0.2800000000006103 0  -0.5 -0.2700000000006381 0  -0.5 -0.2600000000006658 0  -0.5 -0.2500000000006935 0  -0.5 -0.2400000000007212 0  -0.5 -0.230000000000749 0  -0.5 -0.2200000000007767 0  -0.5 -0.2100000000008044 0  -0.5 -0.2000000000008322 0  -0.5 -0.19000000000086 0  -0.5 -0.1800000000008877 0  -0.5 -0.1700000000009154 0  -0.5 -0.1600000000009431 0  -0.5 -0.1500000000009709 0  -0.5 -0.1400000000009986 0  -0.5 -0.1300000000010264 0  -0.5 -0.1200000000010541 0  -0.5 -0.1100000000010818 0  -0.5 -0.1000000000011096 0  -0.5 -0.09000000000113734 0  -0.5 -0.08000000000116503 0  -0.5 -0.07000000000119283 0  -0.5 -0.06000000000122058 0  -0.5 -0.05000000000124827 0  -0.5 -0.04000000000127607 0  -0.5 -0.03000000000130376 0  -0.5 -0.02000000000133151 0  -0.5 -0.01000000000135925 0  -0.5 -1.376121439022882e-12 0  -0.5 0.009999999998640763 0  -0.5 0.01999999999866864 0  -0.5 0.02999999999869629 0  -0.5 0.03999999999872406 0  -0.5 0.04999999999875182 0  -0.5 0.05999999999877947 0  -0.5 0.06999999999880724 0  -0.5 0.079999999998835 0  -0.5 0.08999999999886266 0  -0.5 0.09999999999889042
[...]
<PointData  Vectors="f_27-0"> 
<DataArray  type="Float64"  Name="f_27-0"  NumberOfComponents="3" format="ascii">8.0019863947822061e-04 4.4652254810126843e-02 0.0000000000000000e+00  -1.1531105753826401e-03 4.4579475721004395e-02 0.0000000000000000e+00  1.9169337458841570e-04 4.0739165157698862e-02 0.0000000000000000e+00  -8.4660070886326373e-06 4.0692231553595727e-02 0.0000000000000000e+00  -1.5551211358491050e-03 6.4416772858395203e-03 0.0000000000000000e+00  1.5520535925884055e-03 6.4028891770478661e-03 0.0000000000000000e+00  -1.2470274642678951e-03 6.4676014189446436e-03 0.0000000000000000e+00  1.3115082316009004e-03 6.3612590603136804e-03 0.0000000000000000e+00  1.8912519061013930e-03 4.4008456306604958e-02 0.0000000000000000e+00  2.9465583111738078e-03 4.3299226230272971e-02 0.0000000000000000e+00  3.9615308215267906e-03 4.2528312114735504e-02 0.0000000000000000e+00  4.9334505620090806e-03 4.1698930170277766e-02 0.0000000000000000e+00  5.8577486440982715e-03 4.0815800570512616e-02 0.0000000000000000e+00  6.7326283564829057e-03 3.9882296556942795e-02 0.0000000000000000e+00  7.5540849960145018e-03 3.8904436611041232e-02 0.0000000000000000e+00  8.3210049546223533e-03 3.7886149938437738e-02 0.0000000000000000e+00  9.0308125678708953e-03 3.6832349641338892e-02 0.0000000000000000e+00  9.6811829913869343e-03 3.5748493835649715e-02 0.0000000000000000e+00  1.0272426146074378e-02 3.4639739137455668e-02 0.0000000000000000e+00  1.0803409558147726e-02 3.3510625720858028e-02 0.0000000000000000e+00  1.1273635654990287e-02 3.2366730017531993e-02 0.0000000000000000e+00  1.1683751099427491e-02 3.1211732214172835e-02 0.0000000000000000e+00  1.2032850682027254e-02 3.0052510567228231e-02 0.0000000000000000e+00  1.2322988610502416e-02 2.8892059839625169e-02 0.0000000000000000e+00  1.2554836561038353e-02 2.7734574646248854e-02 0.0000000000000000e+00  1.2729212418908727e-02 2.6585385186931827e-02 0.0000000000000000e+00  1.2848096026459466e-02 2.5448296023088395e-02 0.0000000000000000e+00  1.2913354721169916e-02 2.4325849531677133e-02 0.0000000000000000e+00  1.2926350728514641e-02 2.3222217445566740e-02 0.0000000000000000e+00  1.2889598078650113e-02 2.2139887649313853e-02 0.0000000000000000e+00  1.2805143834747134e-02 2.1081606100754897e-02 0.0000000000000000e+00  1.2674784306396198e-02 2.0051395313385307e-02 0.0000000000000000e+00  1.2501102325097902e-02 1.9050141940648677e-02 0.0000000000000000e+00  1.2286673856163267e-02 1.8080144090982016e-02 0.0000000000000000e+00  1.2033332761545650e-02 1.7143230868980706e-02 0.0000000000000000e+00  1.1743482448635321e-02 1.6241580795247131e-02 0.0000000000000000e+00  1.1419717295464765e-02 1.5374963771123726e-02 0.0000000000000000e+00  1.1064204214720435e-02 1.4545708302622478e-02 0.0000000000000000e+00  1.0678897225295402e-02 1.3754538346086366e-02 0.0000000000000000e+00  1.0266168752813606e-02 1.3002221873484734e-02 0.0000000000000000e+00  9.8280040138834825e-03 1.2289871144561693e-02 0.0000000000000000e+00  9.3665445423760443e-03 1.1617205677641311e-02 0.0000000000000000e+00  8.8833486048183422e-03 1.0984700262076326e-02 0.0000000000000000e+00  8.3804627521797594e-03 1.0392124051224708e-02 0.0000000000000000e+00  7.8598241131684846e-03 9.8410812630867917e-03 0.0000000000000000e+00  7.3226693469701952e-03 9.3305382214098394e-03 0.0000000000000000e+00  6.7709195961926970e-03 8.8603767625527914e-03 0.0000000000000000e+00  6.2060208823971992e-03 8.4316631297549106e-03 0.0000000000000000e+00  5.6297146839952607e-03 8.0436746615137524e-03 0.0000000000000000e+00  5.0432106981225938e-03 7.6958213722309633e-03 0.0000000000000000e+00  4.4473670443564567e-03 7.3892871334604020e-03 0.0000000000000000e+00  3.8437657869557066e-03 7.1229266440483363e-03 0.0000000000000000e+00  3.2334954650301622e-03 6.8970852562021392e-03 0.0000000000000000e+00  2.6176110336395986e-03 6.7111791027042551e-03 0.0000000000000000e+00  1.9977312154977707e-03 6.5659266371314202e-03 0.0000000000000000e+00  1.3744340670173228e-03 6.4605199338366405e-03 0.0000000000000000e+00  7.4929913318472500e-04 6.3948808258787182e-03 0.0000000000000000e+00  1.2251621718036438e-04 6.3697487021032433e-03 0.0000000000000000e+00  -5.0438108606538836e-04 6.3844426097943979e-03 0.0000000000000000e+00  -1.1301162062320256e-03 6.4384116534660146e-03 0.0000000000000000e+00  -1.7540436963879016e-03 6.5323522448578752e-03 0.0000000000000000e+00  -2.3748866895811176e-03 6.6667271969668360e-03 0.0000000000000000e+00  -2.9918887242748370e-03 6.8415474610864693e-03 0.0000000000000000e+00  -3.6036679619514747e-03 7.0562726522318134e-03 0.0000000000000000e+00  -4.2092241478010953e-03 7.3113018018904812e-03 0.0000000000000000e+00  -4.8072429999289502e-03 7.6066122606549954e-03 0.0000000000000000e+00  -5.3968796427369559e-03 7.9427432547108431e-03 0.0000000000000000e+00  -5.9766633436182659e-03 8.3189225108667234e-03 0.0000000000000000e+00  -6.5449785186727635e-03 8.7364703847217593e-03 0.0000000000000000e+00  -7.1010341204662680e-03 9.1943354804986319e-03 0.0000000000000000e+00  -7.6427549846655616e-03 9.6928209202001708e-03 0.0000000000000000e+00  -8.1688060136694881e-03 1.0232095019190464e-02 0.0000000000000000e+00  -8.6777402877822596e-03 1.0811919228586658e-02 0.0000000000000000e+00  -9.1674592205055975e-03 1.1432102296042366e-02 0.0000000000000000e+00  -9.6367186153361404e-03 1.2092858125627154e-02 0.0000000000000000e+00  -1.0082797387051779e-02 1.2793784968338631e-02 0.0000000000000000e+00  -1.0504826247005860e-02 1.3533900568367263e-02 0.0000000000000000e+00  -1.0899621261874418e-02 1.4313266401846717e-02 0.0000000000000000e+00  -1.1265841906650498e-02 1.5131674198101056e-02 0.0000000000000000e+00  -1.1601434956556375e-02 1.5986367748496922e-02 0.0000000000000000e+00  -1.1903723571042050e-02 1.6876956439652018e-02 0.0000000000000000e+00  -1.2170876050218533e-02 1.7803486796167275e-02 0.0000000000000000e+00  -1.2399913442025597e-02 1.8763784921409211e-02 0.0000000000000000e+00  -1.2589761809447965e-02 1.9756028659588223e-02 0.0000000000000000e+00  -1.2736458973063526e-02 2.0778861252153991e-02 0.0000000000000000e+00  -1.2838951174450702e-02 2.1828383510106859e-02 0.0000000000000000e+00  -1.2894439424788736e-02 2.2904217512787043e-02 0.0000000000000000e+00  -1.2900772474994543e-02 2.4002948959789990e-02 0.0000000000000000e+00  -1.2856127670244114e-02 2.5121460451112396e-02 0.0000000000000000e+00  -1.2758142959945344e-02 2.6256288294799309e-02 0.0000000000000000e+00  -1.2605360609086173e-02 2.7404376718839649e-02 0.0000000000000000e+00  -1.2395476179123748e-02 2.8562708794542434e-02 0.0000000000000000e+00  -1.2128209693716842e-02 2.9725066804491402e-02 0.0000000000000000e+00  -1.1801730145071286e-02 3.0888697914355973e-02 0.0000000000000000e+00  -1.1414766793907141e-02 3.2049395873776365e-02 0.0000000000000000e+00  -1.0967189657017196e-02 3.3201705549595610e-02 0.0000000000000000e+00  -1.0458739517087182e-02 3.4340739893777963e-02 0.0000000000000000e+00  -9.8896184030970516e-03 3.5461394490211545e-02 0.0000000000000000e+00  -9.2602017097713745e-03 3.6558828548406093e-02 0.0000000000000000e+00  -8.5705686456840381e-03 3.7628762260730413e-02 0.0000000000000000e+00  -7.8230301101589930e-03 3.8664931040452911e-02 0.0000000000000000e+00  -7.0190428380833021e-03 3.9662768213665066e-02 0.0000000000000000e+00  -6.1601707694226744e-03 4.0617802249822893e-02 0.0000000000000000e+00  -5.2503743034889132e-03 4.1523462712905732e-02 0.0000000000000000e+00  -4.2907110328313913e-03 4.2377045483624400e-02 0.0000000000000000e+00  -3.2854416587398648e-03 4.3173196914830292e-02 0.0000000000000000e+00  -2.2383757229845276e-03 4.3908406878395020e-02 0.0000000000000000e+00  -1.3960395820516044e-03 4.5709099458045140e-02 0.0000000000000000e+00  -1.6559408264301663e-03 4.6892705000470568e-02 0.0000000000000000e+00  -1.9325779827060838e-03 4.8136295218833315e-02 0.0000000000000000e+00  -2.2273520272422160e-03 4.9441248360894537e-02 0.0000000000000000e+00  -2.5414345309075726e-03 5.0813768094783753e-02 0.0000000000000000e+00  -2.8779611593061556e-03 5.2256046281410180e-02 0.0000000000000000e+00  -3.2322960536499469e-03 5.3772923460099854e-02 0.0000000000000000e+00  -3.6111341481346901e-03 5.5370328742456738e-02 0.0000000000000000e+00  -4.0150306550167285e-03 5.7052297854730191e-02 0.0000000000000000e+00  -4.4425792850300841e-03 5.8826430586107960e-02 0.0000000000000000e+00  -4.8974419974832642e-03 6.0698025544788661e-02 0.0000000000000000e+00  -5.3817583336710243e-03 6.2672609113907513e-02 0.0000000000000000e+00  -5.8969568172787439e-03 6.4759701853703722e-02 0.0000000000000000e+00  -6.4471364119376299e-03 6.6963330955507022e-02 0.0000000000000000e+00  -7.0309178660459739e-03 6.9295625093962587e-02 0.0000000000000000e+00  -7.6548165241593965e-03 7.1764225109710700e-02 0.0000000000000000e+00  -8.3232711410852981e-03 7.4374878475890152e-02 0.0000000000000000e+00  -9.0335638106464333e-03 7.7141889636791847e-02 0.0000000000000000e+00  -9.7926857826158512e-03 8.0071564335611439e-02 0.0000000000000000e+00  -1.0607489854338461e-02 8.3170473905650133e-02 0.0000000000000000e+00  -1.1477186480488816e-02 8.6452322951110758e-02 0.0000000000000000e+00  -1.2407526392991308e-02 8.9919892341944238e-02 0.0000000000000000e+00  -1.3397488602420189e-02 9.3579321748458469e-02 0.0000000000000000e+00  -1.4441057874869219e-02 9.7432650056419143e-02 0.0000000000000000e+00  -1.5526640388288557e-02 1.0148312733065602e-01 0.0000000000000000e+00  -1.6644559656382559e-02 1.0571011030782572e-01 0.0000000000000000e+00  -1.7748500559775209e-02 1.1010436473071043e-01 0.0000000000000000e+00  -1.8802444196076514e-02 1.1463236154829790e-01 0.0000000000000000e+00  -1.9700466670579519e-02 1.1924072340183711e-01 0.0000000000000000e+00  -2.0337353133395287e-02 1.2387182553623824e-01 0.0000000000000000e+00  -2.0544079311396568e-02 1.2843249347019406e-01 0.0000000000000000e+00  -2.0087005964606663e-02 1.3279203525487759e-01 0.0000000000000000e+00  -1.8667566756864869e-02 1.3678868675279848e-01 0.0000000000000000e+00  -1.5938978654880601e-02 1.4021484184005534e-01 0.0000000000000000e+00  -1.1449443269535906e-02 1.4280232356530756e-01 0.0000000000000000e+00  -4.7293910446604996e-03 1.4426886494951474e-01 0.0000000000000000e+00  4.6398063983852786e-03 1.4423291859064391e-01 0.0000000000000000e+00  1.6928698956409565e-02 1.4240754599406583e-01 0.0000000000000000e+00  3.1962343777222707e-02 1.3835962794910958e-01 0.0000000000000000e+00  4.8792959961048335e-02 1.3202585742367978e-01 0.0000000000000000e+00  6.5316623765709111e-02 1.2315044451729122e-01 0.0000000000000000e+00  7.8096474767358717e-02 1.1202082542446437e-01 0.0000000000000000e+00  8.2035654019320364e-02 9.8853399166970904e-02 0.0000000000000000e+00  7.2564475693416175e-02 8.4701082408684555e-02 0.0000000000000000e+00  4.5449075457357657e-02 7.1175641746871507e-02 0.0000000000000000e+00  2.4240938358858904e-03 6.1817357278014864e-02 0.0000000000000000e+00  -4.5791891564139278e-02 6.2464328374084076e-02 0.0000000000000000e+00  -7.9767549599256110e-02 7.5947182085163503e-02 0.0000000000000000e+00  -8.6553282894478237e-02 9.9529028744255441e-02 0.0000000000000000e+00  -7.3099510513770879e-02 1.2334626486789974e-01 0.0000000000000000e+00  -5.5432023345793807e-02 1.4106686338710192e-01 0.0000000000000000e+00  -4.0252560799696344e-02 1.5276620569839811e-01 0.0000000000000000e+00  -2.8097992396481208e-02 1.5985499534196645e-01 0.0000000000000000e+00  -1.8290985111410238e-02 1.6367081445119383e-01 0.0000000000000000e+00  -1.0375953579750179e-02 1.6509402782589944e-01 0.0000000000000000e+00  -3.9546787132890638e-03 1.6470847676515532e-01 0.0000000000000000e+00  1.2008143964445026e-03 1.6295582511421644e-01 0.0000000000000000e+00  5.2782593799996650e-03 1.6015301433922777e-01 0.0000000000000000e+00  8.4207197966884341e-03 1.5657868873979600e-01 0.0000000000000000e+00  1.0781685509462872e-02 1.5243099879978772e-01 0.0000000000000000e+00  1.2475032002058569e-02 1.4788910164242072e-01 0.0000000000000000e+00  1.3617692926457882e-02 1.4309028877833802e-01 0.0000000000000000e+00  1.4307265973895752e-02 1.3815385442837896e-01 0.0000000000000000e+00  1.4633577270872859e-02 1.3316583864444978e-01 0.0000000000000000e+00  1.4675978263316717e-02 1.2820203833286187e-01 0.0000000000000000e+00  1.4500882003729820e-02 1.2331343282519969e-01 0.0000000000000000e+00  1.4160549321294688e-02 1.1854716522792780e-01 0.0000000000000000e+00  1.3707959242416735e-02 1.1391770840104411e-01 0.0000000000000000e+00  1.3174832274123633e-02 1.0946313566662215e-01 0.0000000000000000e+00  1.2592363010936839e-02 1.0518143320321292e-01 0.0000000000000000e+00  1.1977561580112648e-02 1.0108801534498836e-01 0.0000000000000000e+00  1.1345582004999327e-02 9.7184425833181737e-02 0.0000000000000000e+00  1.0708857559325215e-02 9.3473363737889920e-02 0.0000000000000000e+00  1.0080647915663304e-02 8.9943349510207909e-02 0.0000000000000000e+00  9.4674413300016979e-03 8.6588386635760670e-02 0.0000000000000000e+00  8.8677234817537889e-03 8.3412273832612779e-02 0.0000000000000000e+00  8.2909810810919658e-03 8.0394938780809111e-02 0.0000000000000000e+00  7.7280801790817087e-03 7.7538124583615184e-02 0.0000000000000000e+00  7.1887052117972899e-03 7.4827877677413501e-02 0.0000000000000000e+00  6.6712007345243775e-03 7.2259514163857494e-02 0.0000000000000000e+00  6.1739345074590547e-03 6.9824405721540514e-02 0.0000000000000000e+00  5.6979704437183937e-03 6.7513411647183386e-02 0.0000000000000000e+00  5.2433292285344428e-03 6.5322103307527316e-02 0.0000000000000000e+00  4.8096220240766378e-03 6.3239789089321458e-02 0.0000000000000000e+00  4.3930882383500019e-03 6.1264201739163839e-02 0.0000000000000000e+00  3.9966906697888023e-03 5.9385259101976312e-02 0.0000000000000000e+00  3.6204163487794381e-03 5.7599662729032934e-02 0.0000000000000000e+00  3.2620584406056240e-03 5.5900074597186197e-02 0.0000000000000000e+00  2.9208257705721900e-03 5.4283683718565012e-02 0.0000000000000000e+00  2.5953062773904261e-03 5.2743548510958721e-02 0.0000000000000000e+00  2.2873041638839264e-03 5.1276771084878513e-02 0.0000000000000000e+00  1.9964982583915657e-03 4.9877460817493231e-02 0.0000000000000000e+00  1.7211032808377425e-03 4.8543519029214124e-02 0.0000000000000000e+00  1.4606500769395949e-03 4.7270568589764382e-02 0.0000000000000000e+00  1.2155341589945978e-03 4.6055232797466067e-02 0.0000000000000000e+00  9.8343975624495665e-04 4.4894914554392942e-02 0.0000000000000000e+00  7.6511518576283352e-04 4.3785260916714558e-02 0.0000000000000000e+00  5.6091384502523892e-04 4.2724045132695739e-02 0.0000000000000000e+00  3.6967614306050299e-04 4.1709547277141740e-02 0.0000000000000000e+00  1.1260551350208831e-03 4.0175494466468974e-02 0.0000000000000000e+00  2.0301114421569480e-03 3.9557746456068778e-02 0.0000000000000000e+00  2.9013245514855593e-03 3.8888577710779151e-02 0.0000000000000000e+00  3.7361932837569347e-03 3.8171745547621247e-02 0.0000000000000000e+00  4.5326845069927251e-03 3.7409527004842777e-02 0.0000000000000000e+00  5.2879198403588037e-03 3.6606589019626573e-02 0.0000000000000000e+00  6.0000471400681920e-03 3.5765257840638331e-02 0.0000000000000000e+00  6.6670456833954903e-03 3.4890349706364510e-02 0.0000000000000000e+00  7.2868007986821937e-03 3.3985378150468773e-02 0.0000000000000000e+00  7.8593150201767929e-03 3.3053082890812761e-02 0.0000000000000000e+00  8.3826619443612554e-03 3.2098527315707268e-02 0.0000000000000000e+00  8.8563338925814038e-03 3.1126621648239018e-02 0.0000000000000000e+00  9.2795784408851827e-03 3.0140027692196245e-02 0.0000000000000000e+00  9.6520780852155513e-03 2.9143445855371389e-02 0.0000000000000000e+00  9.9750025049242658e-03 2.8139379560549030e-02 0.0000000000000000e+00  1.0247991944161037e-02 2.7132899776364402e-02 0.0000000000000000e+00  1.0471495194197114e-02 2.6127427785525778e-02 0.0000000000000000e+00  1.0646991766196403e-02 2.5126328749516393e-02 0.0000000000000000e+00  1.0774793367313119e-02 2.4132455599917776e-02 0.0000000000000000e+00  1.0856384257055355e-02 2.3149619794660060e-02 0.0000000000000000e+00  1.0893107556692393e-02 2.2180379342992392e-02 0.0000000000000000e+00  1.0886287938576602e-02 2.1228018298354495e-02 0.0000000000000000e+00  1.0837305764679870e-02 2.0295085585062947e-02 0.0000000000000000e+00  1.0748427227801539e-02 1.9382870616756177e-02 0.0000000000000000e+00  1.0620896951926390e-02 1.8494441802374962e-02 0.0000000000000000e+00  1.0456475924378580e-02 1.7631576675530041e-02 0.0000000000000000e+00  1.0257166432999707e-02 1.6796283346165678e-02 0.0000000000000000e+00  1.0024769884454412e-02 1.5989115519652639e-02 0.0000000000000000e+00  9.7610503801821135e-03 1.5212981306535504e-02 0.0000000000000000e+00  9.4678007546574253e-03 1.4468394332041839e-02 0.0000000000000000e+00  9.1471189173648430e-03 1.3756285802768674e-02 0.0000000000000000e+00  8.8006695952003375e-03 1.3077657292511558e-02 0.0000000000000000e+00  8.4302716931066463e-03 1.2433243988233849e-02 0.0000000000000000e+00  8.0373741931480842e-03 1.1824272285818142e-02 0.0000000000000000e+00  7.6238698635303463e-03 1.1250550208215387e-02 0.0000000000000000e+00  7.1916248082190765e-03 1.0713391800184043e-02 0.0000000000000000e+00  6.7416365523620308e-03 1.0212470282086654e-02 0.0000000000000000e+00  6.2758598506075297e-03 9.7482850105413150e-03 0.0000000000000000e+00  5.7955105823524269e-03 9.3209286474635732e-03 0.0000000000000000e+00  5.3025033743847394e-03 8.9304304199816723e-03 0.0000000000000000e+00  4.7980358534273270e-03 8.5777756523562673e-03 0.0000000000000000e+00  4.2832458387861627e-03 8.2634108788912954e-03 0.0000000000000000e+00  3.7594720794523933e-03 7.9855932047657053e-03 0.0000000000000000e+00  3.2277552179936293e-03 7.7453985069125568e-03 0.0000000000000000e+00  2.6894068995249212e-03 7.5427450237539589e-03 0.0000000000000000e+00  2.1458266709809297e-03 7.3775044958581618e-03 0.0000000000000000e+00  1.5978591818631225e-03 7.2493480048079631e-03 0.0000000000000000e+00  1.0471567484395855e-03 7.1590972548492907e-03 0.0000000000000000e+00  4.9437540735795447e-04 7.1069753954388004e-03 0.0000000000000000e+00  -5.9423094675508905e-05 7.0920224830678018e-03 0.0000000000000000e+00  -6.1312792893182067e-04 7.1140790082618050e-03 0.0000000000000000e+00  -1.1655471934958308e-03 7.1740205725442392e-03 0.0000000000000000e+00  -1.7152686855340946e-03 7.2718371182878402e-03 0.0000000000000000e+00  -2.2614759700831499e-03 7.4071008283337330e-03 0.0000000000000000e+00  -2.8031014310498565e-03 7.5795922337967662e-03 0.0000000000000000e+00  -3.3392954711439059e-03 7.7894101380232509e-03 0.0000000000000000e+00  -3.8682857717042144e-03 8.0363685853801214e-03 0.0000000000000000e+00  -4.3892523663580912e-03 8.3212410071176520e-03 0.0000000000000000e+00  -4.9007619615543075e-03 8.6435826941406568e-03 0.0000000000000000e+00  -5.4015107823939899e-03 9.0035301778937267e-03 0.0000000000000000e+00  -5.8903962333587672e-03 9.3998774495211088e-03 0.0000000000000000e+00  -6.3656250691554927e-03 9.8337920789088682e-03 0.0000000000000000e+00  -6.8264686490463883e-03 1.0304332004525248e-02 0.0000000000000000e+00  -7.2708443877093779e-03 1.0811366458071367e-02 0.0000000000000000e+00  -7.6973275809973712e-03 1.1354942329632616e-02 0.0000000000000000e+00  -8.1045079821447409e-03 1.1934438387216912e-02 0.0000000000000000e+00  -8.4903165727499477e-03 1.2549045676971246e-02 0.0000000000000000e+00  -8.8537949593364990e-03 1.3198020909016641e-02 0.0000000000000000e+00  -9.1923312996288770e-03 1.3881166545937608e-02 0.0000000000000000e+00  -9.5051699149733739e-03 1.4597286839290041e-02 0.0000000000000000e+00  -9.7899116610964069e-03 1.5345352683250355e-02 0.0000000000000000e+00  -1.0044647275017691e-02 1.6125150195693879e-02 0.0000000000000000e+00  -1.0267795490530892e-02 1.6934980282837419e-02 0.0000000000000000e+00  -1.0457663286912684e-02 1.7772384051907650e-02 0.0000000000000000e+00  -1.0612387036233602e-02 1.8637061740644320e-02 0.0000000000000000e+00  -1.0729839294981164e-02 1.9526774533433520e-02 0.0000000000000000e+00  -1.0809031180614943e-0