<?xml version="1.0"?>
<VTKFile type="UnstructuredGrid"  version="0.1"  >
<UnstructuredGrid>
<Piece  NumberOfPoints="16275" NumberOfCells="32468">
<Points>
<DataArray  type="Float64"  NumberOfComponents="3"  format="ascii">-0.5 0.5 0  0.5 0.5 0  0.5 -0.5 0  -0.5 -0.5 0  -1 1 0  1 1 0  1 -1 0  -1 -1 0  -0.4900000000000277 0.5 0  -0.4800000000000555 0.5 0  -0.4700000000000832 0.5 0  -0.4600000000001109 0.5 0  -0.4500000000001387 0.5 0  -0.4400000000001664 0.5 0  -0.4300000000001942 0.5 0  -0.4200000000002219 0.5 0  -0.4100000000002497 0.5 0  -0.4000000000002774 0.5 0  -0.3900000000003052 0.5 0  -0.3800000000003328 0.5 0  -0.3700000000003606 0.5 0  -0.3600000000003883 0.5 0  -0.3500000000004161 0.5 0  -0.3400000000004438 0.5 0  -0.3300000000004716 0.5 0  -0.3200000000004993 0.5 0  -0.3100000000005271 0.5 0  -0.3000000000005548 0.5 0  -0.2900000000005825 0.5 0  -0.2800000000006103 0.5 0  -0.2700000000006381 0.5 0  -0.2600000000006658 0.5 0  -0.2500000000006935 0.5 0  -0.2400000000007212 0.5 0  -0.230000000000749 0.5 0  -0.2200000000007767 0.5 0  -0.2100000000008044 0.5 0  -0.2000000000008322 0.5 0  -0.19000000000086 0.5 0  -0.1800000000008877 0.5 0  -0.1700000000009154 0.5 0  -0.1600000000009431 0.5 0  -0.1500000000009709 0.5 0  -0.1400000000009986 0.5 0  -0.1300000000010264 0.5 0  -0.1200000000010541 0.5 0  -0.1100000000010818 0.5 0  -0.1000000000011096 0.5 0  -0.09000000000113734 0.5 0  -0.08000000000116503 0.5 0  -0.07000000000119283 0.5 0  -0.06000000000122058 0.5 0  -0.05000000000124827 0.5 0  -0.04000000000127607 0.5 0  -0.03000000000130376 0.5 0  -0.02000000000133151 0.5 0  -0.01000000000135925 0.5 0  -1.376121439022882e-12 0.5 0  0.009999999998640763 0.5 0  0.01999999999866864 0.5 0  0.02999999999869629 0.5 0  0.03999999999872406 0.5 0  0.04999999999875182 0.5 0  0.05999999999877947 0.5 0  0.06999999999880724 0.5 0  0.079999999998835 0.5 0  0.08999999999886266 0.5 0  0.09999999999889042 0.5 0  0.1099999999989182 0.5 0  0.1199999999989459 0.5 0  0.1299999999989737 0.5 0  0.1399999999990014 0.5 0  0.1499999999990291 0.5 0  0.1599999999990568 0.5 0  0.1699999999990847 0.5 0  0.1799999999991124 0.5 0  0.1899999999991401 0.5 0  0.1999999999991678 0.5 0  0.2099999999991955 0.5 0  0.2199999999992234 0.5 0  0.2299999999992511 0.5 0  0.2399999999992788 0.5 0  0.2499999999993066 0.5 0  0.2599999999993342 0.5 0  0.269999999999362 0.5 0  0.2799999999993897 0.5 0  0.2899999999994175 0.5 0  0.2999999999994452 0.5 0  0.3099999999994729 0.5 0  0.3199999999995007 0.5 0  0.3299999999995284 0.5 0  0.3399999999995562 0.5 0  0.3499999999995839 0.5 0  0.3599999999996116 0.5 0  0.3699999999996393 0.5 0  0.379999999999667 0.5 0  0.3899999999996949 0.5 0  0.3999999999997226 0.5 0  0.4099999999997503 0.5 0  0.419999999999778 0.5 0  0.4299999999998058 0.5 0  0.4399999999998336 0.5 0  0.4499999999998613 0.5 0  0.4599999999998891 0.5 0  0.4699999999999167 0.5 0  0.4799999999999445 0.5 0  0.4899999999999722 0.5 0  0.5 0.4900000000000277 0  0.5 0.4800000000000555 0  0.5 0.4700000000000832 0  0.5 0.4600000000001109 0  0.5 0.4500000000001387 0  0.5 0.4400000000001664 0  0.5 0.4300000000001942 0  0.5 0.4200000000002219 0  0.5 0.4100000000002497 0  0.5 0.4000000000002774 0  0.5 0.3900000000003052 0  0.5 0.3800000000003328 0  0.5 0.3700000000003606 0  0.5 0.3600000000003883 0  0.5 0.3500000000004161 0  0.5 0.3400000000004438 0  0.5 0.3300000000004716 0  0.5 0.3200000000004993 0  0.5 0.3100000000005271 0  0.5 0.3000000000005548 0  0.5 0.2900000000005825 0  0.5 0.2800000000006103 0  0.5 0.2700000000006381 0  0.5 0.2600000000006658 0  0.5 0.2500000000006935 0  0.5 0.2400000000007212 0  0.5 0.230000000000749 0  0.5 0.2200000000007767 0  0.5 0.2100000000008044 0  0.5 0.2000000000008322 0  0.5 0.19000000000086 0  0.5 0.1800000000008877 0  0.5 0.1700000000009154 0  0.5 0.1600000000009431 0  0.5 0.1500000000009709 0  0.5 0.1400000000009986 0  0.5 0.1300000000010264 0  0.5 0.1200000000010541 0  0.5 0.1100000000010818 0  0.5 0.1000000000011096 0  0.5 0.09000000000113734 0  0.5 0.08000000000116503 0  0.5 0.07000000000119283 0  0.5 0.06000000000122058 0  0.5 0.05000000000124827 0  0.5 0.04000000000127607 0  0.5 0.03000000000130376 0  0.5 0.02000000000133151 0  0.5 0.01000000000135925 0  0.5 1.376121439022882e-12 0  0.5 -0.009999999998640763 0  0.5 -0.01999999999866864 0  0.5 -0.02999999999869629 0  0.5 -0.03999999999872406 0  0.5 -0.04999999999875182 0  0.5 -0.05999999999877947 0  0.5 -0.06999999999880724 0  0.5 -0.079999999998835 0  0.5 -0.08999999999886266 0  0.5 -0.09999999999889042 0  0.5 -0.1099999999989182 0  0.5 -0.1199999999989459 0  0.5 -0.1299999999989737 0  0.5 -0.1399999999990014 0  0.5 -0.1499999999990291 0  0.5 -0.1599999999990568 0  0.5 -0.1699999999990847 0  0.5 -0.1799999999991124 0  0.5 -0.1899999999991401 0  0.5 -0.1999999999991678 0  0.5 -0.2099999999991955 0  0.5 -0.2199999999992234 0  0.5 -0.2299999999992511 0  0.5 -0.2399999999992788 0  0.5 -0.2499999999993066 0  0.5 -0.2599999999993342 0  0.5 -0.269999999999362 0  0.5 -0.2799999999993897 0  0.5 -0.2899999999994175 0  0.5 -0.2999999999994452 0  0.5 -0.3099999999994729 0  0.5 -0.3199999999995007 0  0.5 -0.3299999999995284 0  0.5 -0.3399999999995562 0  0.5 -0.3499999999995839 0  0.5 -0.3599999999996116 0  0.5 -0.3699999999996393 0  0.5 -0.379999999999667 0  0.5 -0.3899999999996949 0  0.5 -0.3999999999997226 0  0.5 -0.4099999999997503 0  0.5 -0.419999999999778 0  0.5 -0.4299999999998058 0  0.5 -0.4399999999998336 0  0.5 -0.4499999999998613 0  0.5 -0.4599999999998891 0  0.5 -0.4699999999999167 0  0.5 -0.4799999999999445 0  0.5 -0.4899999999999722 0  0.4900000000000277 -0.5 0  0.4800000000000555 -0.5 0  0.4700000000000832 -0.5 0  0.4600000000001109 -0.5 0  0.4500000000001387 -0.5 0  0.4400000000001664 -0.5 0  0.4300000000001942 -0.5 0  0.4200000000002219 -0.5 0  0.4100000000002497 -0.5 0  0.4000000000002774 -0.5 0  0.3900000000003052 -0.5 0  0.3800000000003328 -0.5 0  0.3700000000003606 -0.5 0  0.3600000000003883 -0.5 0  0.3500000000004161 -0.5 0  0.3400000000004438 -0.5 0  0.3300000000004716 -0.5 0  0.3200000000004993 -0.5 0  0.3100000000005271 -0.5 0  0.3000000000005548 -0.5 0  0.2900000000005825 -0.5 0  0.2800000000006103 -0.5 0  0.2700000000006381 -0.5 0  0.2600000000006658 -0.5 0  0.2500000000006935 -0.5 0  0.2400000000007212 -0.5 0  0.230000000000749 -0.5 0  0.2200000000007767 -0.5 0  0.2100000000008044 -0.5 0  0.2000000000008322 -0.5 0  0.19000000000086 -0.5 0  0.1800000000008877 -0.5 0  0.1700000000009154 -0.5 0  0.1600000000009431 -0.5 0  0.1500000000009709 -0.5 0  0.1400000000009986 -0.5 0  0.1300000000010264 -0.5 0  0.1200000000010541 -0.5 0  0.1100000000010818 -0.5 0  0.1000000000011096 -0.5 0  0.09000000000113734 -0.5 0  0.08000000000116503 -0.5 0  0.07000000000119283 -0.5 0  0.06000000000122058 -0.5 0  0.05000000000124827 -0.5 0  0.04000000000127607 -0.5 0  0.03000000000130376 -0.5 0  0.02000000000133151 -0.5 0  0.01000000000135925 -0.5 0  1.376121439022882e-12 -0.5 0  -0.009999999998640763 -0.5 0  -0.01999999999866864 -0.5 0  -0.02999999999869629 -0.5 0  -0.03999999999872406 -0.5 0  -0.04999999999875182 -0.5 0  -0.05999999999877947 -0.5 0  -0.06999999999880724 -0.5 0  -0.079999999998835 -0.5 0  -0.08999999999886266 -0.5 0  -0.09999999999889042 -0.5 0  -0.1099999999989182 -0.5 0  -0.1199999999989459 -0.5 0  -0.1299999999989737 -0.5 0  -0.1399999999990014 -0.5 0  -0.1499999999990291 -0.5 0  -0.1599999999990568 -0.5 0  -0.1699999999990847 -0.5 0  -0.1799999999991124 -0.5 0  -0.1899999999991401 -0.5 0  -0.1999999999991678 -0.5 0  -0.2099999999991955 -0.5 0  -0.2199999999992234 -0.5 0  -0.2299999999992511 -0.5 0  -0.2399999999992788 -0.5 0  -0.2499999999993066 -0.5 0  -0.2599999999993342 -0.5 0  -0.269999999999362 -0.5 0  -0.2799999999993897 -0.5 0  -0.2899999999994175 -0.5 0  -0.2999999999994452 -0.5 0  -0.3099999999994729 -0.5 0  -0.3199999999995007 -0.5 0  -0.3299999999995284 -0.5 0  -0.3399999999995562 -0.5 0  -0.3499999999995839 -0.5 0  -0.3599999999996116 -0.5 0  -0.3699999999996393 -0.5 0  -0.379999999999667 -0.5 0  -0.3899999999996949 -0.5 0  -0.3999999999997226 -0.5 0  -0.4099999999997503 -0.5 0  -0.419999999999778 -0.5 0  -0.4299999999998058 -0.5 0  -0.4399999999998336 -0.5 0  -0.4499999999998613 -0.5 0  -0.4599999999998891 -0.5 0  -0.4699999999999167 -0.5 0  -0.4799999999999445 -0.5 0  -0.4899999999999722 -0.5 0  -0.5 -0.4900000000000277 0  -0.5 -0.4800000000000555 0  -0.5 -0.4700000000000832 0  -0.5 -0.4600000000001109 0  -0.5 -0.4500000000001387 0  -0.5 -0.4400000000001664 0  -0.5 -0.4300000000001942 0  -0.5 -0.4200000000002219 0  -0.5 -0.4100000000002497 0  -0.5 -0.4000000000002774 0  -0.5 -0.3900000000003052 0  -0.5 -0.3800000000003328 0  -0.5 -0.3700000000003606 0  -0.5 -0.3600000000003883 0  -0.5 -0.3500000000004161 0  -0.5 -0.3400000000004438 0  -0.5 -0.3300000000004716 0  -0.5 -0.3200000000004993 0  -0.5 -0.3100000000005271 0  -0.5 -0.3000000000005548 0  -0.5 -0.2900000000005825 0  -0.5 -0.2800000000006103 0  -0.5 -0.2700000000006381 0  -0.5 -0.2600000000006658 0  -0.5 -0.2500000000006935 0  -0.5 -0.2400000000007212 0  -0.5 -0.230000000000749 0  -0.5 -0.2200000000007767 0  -0.5 -0.2100000000008044 0  -0.5 -0.2000000000008322 0  -0.5 -0.19000000000086 0  -0.5 -0.1800000000008877 0  -0.5 -0.1700000000009154 0  -0.5 -0.1600000000009431 0  -0.5 -0.1500000000009709 0  -0.5 -0.1400000000009986 0  -0.5 -0.1300000000010264 0  -0.5 -0.1200000000010541 0  -0.5 -0.1100000000010818 0  -0.5 -0.1000000000011096 0  -0.5 -0.09000000000113734 0  -0.5 -0.08000000000116503 0  -0.5 -0.07000000000119283 0  -0.5 -0.06000000000122058 0  -0.5 -0.05000000000124827 0  -0.5 -0.04000000000127607 0  -0.5 -0.03000000000130376 0  -0.5 -0.02000000000133151 0  -0.5 -0.01000000000135925 0  -0.5 -1.376121439022882e-12 0  -0.5 0.009999999998640763 0  -0.5 0.01999999999866864 0  -0.5 0.02999999999869629 0  -0.5 0.03999999999872406 0  -0.5 0.04999999999875182 0  -0.5 0.05999999999877947 0  -0.5 0.06999999999880724 0  -0.5 0.079999999998835 0  -0.5 0.08999999999886266 0  -0.5 0.09999999999889042
[...]
<PointData  Vectors="f_27-0"> 
<DataArray  type="Float64"  Name="f_27-0"  NumberOfComponents="3" format="ascii">1.3044596998884226e-03 4.7292745861119624e-02 0.0000000000000000e+00  -1.8077385702354688e-03 4.7091654271066472e-02 0.0000000000000000e+00  -2.4830263340215413e-04 3.8787217653778523e-02 0.0000000000000000e+00  3.7514784395450859e-04 3.8703304973797058e-02 0.0000000000000000e+00  -1.5609459296890213e-03 6.3335429370535608e-03 0.0000000000000000e+00  1.5314531990884494e-03 6.3297433682304085e-03 0.0000000000000000e+00  -8.9377149093261186e-04 6.1776425316671987e-03 0.0000000000000000e+00  8.9267616130507652e-04 6.1836831035387285e-03 0.0000000000000000e+00  2.5091063940000341e-03 4.6584371971206760e-02 0.0000000000000000e+00  3.6730881842627688e-03 4.5801357104112358e-02 0.0000000000000000e+00  4.7906439728947993e-03 4.4948323858557460e-02 0.0000000000000000e+00  5.8585626389601525e-03 4.4029079564522892e-02 0.0000000000000000e+00  6.8714274671515668e-03 4.3049580362750549e-02 0.0000000000000000e+00  7.8271075736621541e-03 4.2013731175048384e-02 0.0000000000000000e+00  8.7209722927701159e-03 4.0928938864142742e-02 0.0000000000000000e+00  9.5519748072868498e-03 3.9799533397147993e-02 0.0000000000000000e+00  1.0317435528704053e-02 3.8631724069221808e-02 0.0000000000000000e+00  1.1014610184552704e-02 3.7432524554834666e-02 0.0000000000000000e+00  1.1644077783321504e-02 3.6207493511199493e-02 0.0000000000000000e+00  1.2204885152961260e-02 3.4961669427209616e-02 0.0000000000000000e+00  1.2696864966622919e-02 3.3701819212982813e-02 0.0000000000000000e+00  1.3121058327746262e-02 3.2432226939409801e-02 0.0000000000000000e+00  1.3476651699232818e-02 3.1160818043141279e-02 0.0000000000000000e+00  1.3766378859355532e-02 2.9890764463558161e-02 0.0000000000000000e+00  1.3991305928174172e-02 2.8626909902781460e-02 0.0000000000000000e+00  1.4152619217856967e-02 2.7375121744371862e-02 0.0000000000000000e+00  1.4252973700147550e-02 2.6139439932908598e-02 0.0000000000000000e+00  1.4294706826968590e-02 2.4922597338310225e-02 0.0000000000000000e+00  1.4279652313673587e-02 2.3729211112216080e-02 0.0000000000000000e+00  1.4210878836444403e-02 2.2561692791206258e-02 0.0000000000000000e+00  1.4090912456330883e-02 2.1422857612460964e-02 0.0000000000000000e+00  1.3921986204032474e-02 2.0317173276137017e-02 0.0000000000000000e+00  1.3707138502875809e-02 1.9245079975310494e-02 0.0000000000000000e+00  1.3449388139007441e-02 1.8208967526676084e-02 0.0000000000000000e+00  1.3150920099889126e-02 1.7210449484456210e-02 0.0000000000000000e+00  1.2814524749998547e-02 1.6251913900521161e-02 0.0000000000000000e+00  1.2443103752933280e-02 1.5332699007771613e-02 0.0000000000000000e+00  1.2039123572480106e-02 1.4454859851335457e-02 0.0000000000000000e+00  1.1604758305168090e-02 1.3619223011507467e-02 0.0000000000000000e+00  1.1142526148092649e-02 1.2826338234339294e-02 0.0000000000000000e+00  1.0654730776707391e-02 1.2076973117696748e-02 0.0000000000000000e+00  1.0143648988317690e-02 1.1370557253562077e-02 0.0000000000000000e+00  9.6110443889188806e-03 1.0707614751063053e-02 0.0000000000000000e+00  9.0589616182578919e-03 1.0087784761304583e-02 0.0000000000000000e+00  8.4894594537197280e-03 9.5120285685699902e-03 0.0000000000000000e+00  7.9039771320032967e-03 8.9794797303675029e-03 0.0000000000000000e+00  7.3043562375506368e-03 8.4899309005326551e-03 0.0000000000000000e+00  6.6920594745918174e-03 8.0441344906389631e-03 0.0000000000000000e+00  6.0686844474275746e-03 7.6409682996819083e-03 0.0000000000000000e+00  5.4356208772381740e-03 7.2797176273779853e-03 0.0000000000000000e+00  4.7938508610319936e-03 6.9619440487091741e-03 0.0000000000000000e+00  4.1448195279049239e-03 6.6861166224111927e-03 0.0000000000000000e+00  3.4896164580208366e-03 6.4522902170615253e-03 0.0000000000000000e+00  2.8291663000391269e-03 6.2600391094110377e-03 0.0000000000000000e+00  2.1650797959409974e-03 6.1099511689145635e-03 0.0000000000000000e+00  1.4977662599372629e-03 6.0010017831688533e-03 0.0000000000000000e+00  8.2880443738326441e-04 5.9330136251413554e-03 0.0000000000000000e+00  1.5859214888244250e-04 5.9068298981471102e-03 0.0000000000000000e+00  -5.1162968358870484e-04 5.9219901401668324e-03 0.0000000000000000e+00  -1.1807439976599095e-03 5.9776736228250686e-03 0.0000000000000000e+00  -1.8481454662126733e-03 6.0744628966354587e-03 0.0000000000000000e+00  -2.5125334349513323e-03 6.2129064196493654e-03 0.0000000000000000e+00  -3.1731597444569098e-03 6.3931830023208572e-03 0.0000000000000000e+00  -3.8286986144305244e-03 6.6148872050363662e-03 0.0000000000000000e+00  -4.4783519975064908e-03 6.8784522923225075e-03 0.0000000000000000e+00  -5.1207991376644481e-03 7.1836396521341821e-03 0.0000000000000000e+00  -5.7551129545206393e-03 7.5310810576083350e-03 0.0000000000000000e+00  -6.3799493400632235e-03 7.9203938817546029e-03 0.0000000000000000e+00  -6.9937612296896616e-03 8.3530163189748409e-03 0.0000000000000000e+00  -7.5957026691901592e-03 8.8278488542940046e-03 0.0000000000000000e+00  -8.1836379650169697e-03 9.3455280612920535e-03 0.0000000000000000e+00  -8.7564017504397108e-03 9.9062369793989843e-03 0.0000000000000000e+00  -9.3123561175980658e-03 1.0509770903830701e-02 0.0000000000000000e+00  -9.8493643641399918e-03 1.1156262902056133e-02 0.0000000000000000e+00  -1.0366259367798614e-02 1.1846139414683493e-02 0.0000000000000000e+00  -1.0860035267102029e-02 1.2579212019838618e-02 0.0000000000000000e+00  -1.1329884492239218e-02 1.3354819409068205e-02 0.0000000000000000e+00  -1.1772433238663175e-02 1.4172826527520261e-02 0.0000000000000000e+00  -1.2186172662998301e-02 1.5033378016166620e-02 0.0000000000000000e+00  -1.2568724992990351e-02 1.5933982155458597e-02 0.0000000000000000e+00  -1.2917363628317469e-02 1.6874536677072366e-02 0.0000000000000000e+00  -1.3229975621473471e-02 1.7855113016996892e-02 0.0000000000000000e+00  -1.3503285018405932e-02 1.8873469429349650e-02 0.0000000000000000e+00  -1.3735718836416036e-02 1.9928180135441967e-02 0.0000000000000000e+00  -1.3923252353903244e-02 2.1018297387183554e-02 0.0000000000000000e+00  -1.4064405342040171e-02 2.2139550398568381e-02 0.0000000000000000e+00  -1.4156019892920757e-02 2.3291685318075499e-02 0.0000000000000000e+00  -1.4195323301259806e-02 2.4471357648167706e-02 0.0000000000000000e+00  -1.4180105805041266e-02 2.5675487825541691e-02 0.0000000000000000e+00  -1.4107549343532422e-02 2.6900480028912731e-02 0.0000000000000000e+00  -1.3975906884012739e-02 2.8143101246220225e-02 0.0000000000000000e+00  -1.3781949254268179e-02 2.9400021766481939e-02 0.0000000000000000e+00  -1.3525098083952880e-02 3.0664809037481637e-02 0.0000000000000000e+00  -1.3203028442799931e-02 3.1934400195546407e-02 0.0000000000000000e+00  -1.2813991278136158e-02 3.3204251357388637e-02 0.0000000000000000e+00  -1.2357314661246073e-02 3.4467970735118127e-02 0.0000000000000000e+00  -1.1832444740739700e-02 3.5720262320615426e-02 0.0000000000000000e+00  -1.1239065131787681e-02 3.6955334462969516e-02 0.0000000000000000e+00  -1.0577445950882461e-02 3.8167766637417645e-02 0.0000000000000000e+00  -9.8470961195329127e-03 3.9352438999360022e-02 0.0000000000000000e+00  -9.0504672649211419e-03 4.0501925680720419e-02 0.0000000000000000e+00  -8.1888087282277790e-03 4.1610624591167565e-02 0.0000000000000000e+00  -7.2635085776738290e-03 4.2673602188739557e-02 0.0000000000000000e+00  -6.2790800135672014e-03 4.3682839806158058e-02 0.0000000000000000e+00  -5.2365957365807141e-03 4.4635041309092092e-02 0.0000000000000000e+00  -4.1409512343213118e-03 4.5523671484467169e-02 0.0000000000000000e+00  -2.9965983939111121e-03 4.6343936844749162e-02 0.0000000000000000e+00  -2.0967450903516737e-03 4.8332086440461323e-02 0.0000000000000000e+00  -2.4068764789188738e-03 4.9634952957048117e-02 0.0000000000000000e+00  -2.7378806864719525e-03 5.1006798628072357e-02 0.0000000000000000e+00  -3.0922852670219937e-03 5.2449530579510038e-02 0.0000000000000000e+00  -3.4705661646264674e-03 5.3970134134359353e-02 0.0000000000000000e+00  -3.8770299125717176e-03 5.5571933181894656e-02 0.0000000000000000e+00  -4.3083833253035417e-03 5.7261056587804608e-02 0.0000000000000000e+00  -4.7730199815710838e-03 5.9044328284950917e-02 0.0000000000000000e+00  -5.2716818754387105e-03 6.0926440354087084e-02 0.0000000000000000e+00  -5.8032446020384416e-03 6.2916317527674140e-02 0.0000000000000000e+00  -6.3735063874495483e-03 6.5020789931074241e-02 0.0000000000000000e+00  -6.9877148732514303e-03 6.7246385711929091e-02 0.0000000000000000e+00  -7.6489167754592918e-03 6.9603743221692799e-02 0.0000000000000000e+00  -8.3639114809474103e-03 7.2096699053223051e-02 0.0000000000000000e+00  -9.1337648442928621e-03 7.4738157564893423e-02 0.0000000000000000e+00  -9.9669643137755073e-03 7.7535618162615949e-02 0.0000000000000000e+00  -1.0873401520954833e-02 8.0492457558225997e-02 0.0000000000000000e+00  -1.1853078060208584e-02 8.3622440477826271e-02 0.0000000000000000e+00  -1.2914106235512309e-02 8.6925133659818909e-02 0.0000000000000000e+00  -1.4063751969754784e-02 9.0399310650889561e-02 0.0000000000000000e+00  -1.5293652526200076e-02 9.4047047283789209e-02 0.0000000000000000e+00  -1.6598504467912396e-02 9.7852040571701646e-02 0.0000000000000000e+00  -1.7946415359720181e-02 1.0179560019846418e-01 0.0000000000000000e+00  -1.9287671388421138e-02 1.0584641648214614e-01 0.0000000000000000e+00  -2.0522437741935847e-02 1.0995613814816511e-01 0.0000000000000000e+00  -2.1509278117073621e-02 1.1404888708827982e-01 0.0000000000000000e+00  -2.2011812203677678e-02 1.1803387738586764e-01 0.0000000000000000e+00  -2.1726416341166389e-02 1.2179417653964526e-01 0.0000000000000000e+00  -2.0190913171854293e-02 1.2517734622611215e-01 0.0000000000000000e+00  -1.6899806270807935e-02 1.2802335841595344e-01 0.0000000000000000e+00  -1.1253069681432649e-02 1.3015982193555872e-01 0.0000000000000000e+00  -2.7459753545599291e-03 1.3143609965319572e-01 0.0000000000000000e+00  8.8095860165010656e-03 1.3168969893217558e-01 0.0000000000000000e+00  2.3103840336256665e-02 1.3090398823373689e-01 0.0000000000000000e+00  3.8952814924805915e-02 1.2894789585144498e-01 0.0000000000000000e+00  5.4265827246589890e-02 1.2581045650750913e-01 0.0000000000000000e+00  6.6240317973748256e-02 1.2119508550432408e-01 0.0000000000000000e+00  7.1338770527614434e-02 1.1508416484746387e-01 0.0000000000000000e+00  6.6095989605872665e-02 1.0728074026848392e-01 0.0000000000000000e+00  4.7585798477402873e-02 9.9143498775199554e-02 0.0000000000000000e+00  1.5927695410152657e-02 9.2799372617560119e-02 0.0000000000000000e+00  -2.2287356762629468e-02 9.1472769170404478e-02 0.0000000000000000e+00  -5.4372010824923392e-02 9.8727832385877484e-02 0.0000000000000000e+00  -6.8519772714619148e-02 1.1363180847898201e-01 0.0000000000000000e+00  -6.4955266119856317e-02 1.3181691140129320e-01 0.0000000000000000e+00  -5.3518505645482058e-02 1.4777320214927017e-01 0.0000000000000000e+00  -4.2142697558717752e-02 1.5881343505130882e-01 0.0000000000000000e+00  -3.2727241579253712e-02 1.6594641058813725e-01 0.0000000000000000e+00  -2.4863120839467817e-02 1.7007790396648223e-01 0.0000000000000000e+00  -1.8219080009482247e-02 1.7200724090403083e-01 0.0000000000000000e+00  -1.2560537024320350e-02 1.7225303484796270e-01 0.0000000000000000e+00  -7.7201483742887766e-03 1.7118947975138613e-01 0.0000000000000000e+00  -3.6012898402407794e-03 1.6910280424400295e-01 0.0000000000000000e+00  -9.6358967329083128e-05 1.6619692296078403e-01 0.0000000000000000e+00  2.8248585903588573e-03 1.6264861955883222e-01 0.0000000000000000e+00  5.2405885899285054e-03 1.5860670909035016e-01 0.0000000000000000e+00  7.1867733703780030e-03 1.5420845804570593e-01 0.0000000000000000e+00  8.7123738251934611e-03 1.4956444478640610e-01 0.0000000000000000e+00  9.8734495140136054e-03 1.4476183030489995e-01 0.0000000000000000e+00  1.0713117730333638e-02 1.3988340920945103e-01 0.0000000000000000e+00  1.1282953194904521e-02 1.3498499479549633e-01 0.0000000000000000e+00  1.1618351348818568e-02 1.3012519561748107e-01 0.0000000000000000e+00  1.1761429799175539e-02 1.2534360189881058e-01 0.0000000000000000e+00  1.1745313806797450e-02 1.2067097212132534e-01 0.0000000000000000e+00  1.1601902530768279e-02 1.1613259842026101e-01 0.0000000000000000e+00  1.1359262467503069e-02 1.1174231325506612e-01 0.0000000000000000e+00  1.1039813451297476e-02 1.0751883911076160e-01 0.0000000000000000e+00  1.0666057204306585e-02 1.0345627152280522e-01 0.0000000000000000e+00  1.0249222610814634e-02 9.9572937850150131e-02 0.0000000000000000e+00  9.8053287297371252e-03 9.5856360365211155e-02 0.0000000000000000e+00  9.3415813706353868e-03 9.2311567004595377e-02 0.0000000000000000e+00  8.8641079786184913e-03 8.8934594241247125e-02 0.0000000000000000e+00  8.3818924049408484e-03 8.5722260357551844e-02 0.0000000000000000e+00  7.9027569601454600e-03 8.2664134720806748e-02 0.0000000000000000e+00  7.4291082648282204e-03 7.9753826607056474e-02 0.0000000000000000e+00  6.9610083982492802e-03 7.6990962126361293e-02 0.0000000000000000e+00  6.5059631272730688e-03 7.4360622104015825e-02 0.0000000000000000e+00  6.0576660637733292e-03 7.1862227873086743e-02 0.0000000000000000e+00  5.6239674972913918e-03 6.9485238383961007e-02 0.0000000000000000e+00  5.2042601839813081e-03 6.7225555618239813e-02 0.0000000000000000e+00  4.7978131792206242e-03 6.5076284939324436e-02 0.0000000000000000e+00  4.4056481730238113e-03 6.3030281843286032e-02 0.0000000000000000e+00  4.0283458191846264e-03 6.1084045104872517e-02 0.0000000000000000e+00  3.6664119055437455e-03 5.9229029672387593e-02 0.0000000000000000e+00  3.3177991181940355e-03 5.7463293094524158e-02 0.0000000000000000e+00  2.9846177045293200e-03 5.5779117667749248e-02 0.0000000000000000e+00  2.6669728286996693e-03 5.4173998933793981e-02 0.0000000000000000e+00  2.3628559648698516e-03 5.2642248493256112e-02 0.0000000000000000e+00  2.0729533542452427e-03 5.1181048673568444e-02 0.0000000000000000e+00  1.7963794743637185e-03 4.9785387248048790e-02 0.0000000000000000e+00  1.5343929005066693e-03 4.8452878110932490e-02 0.0000000000000000e+00  1.2866330623763644e-03 4.7178997468925364e-02 0.0000000000000000e+00  1.0516241322030878e-03 4.5961857835673581e-02 0.0000000000000000e+00  8.2892446366805944e-04 4.4797629367290662e-02 0.0000000000000000e+00  6.1967126639552556e-04 4.3683410315397873e-02 0.0000000000000000e+00  4.2200719281165657e-04 4.2617581006155127e-02 0.0000000000000000e+00  2.3699321378547198e-04 4.1596684258599068e-02 0.0000000000000000e+00  6.4584178859233282e-05 4.0619245242980370e-02 0.0000000000000000e+00  -9.7028377900397952e-05 3.9683403144492709e-02 0.0000000000000000e+00  6.1645625724940205e-04 3.8271321545633515e-02 0.0000000000000000e+00  1.4540046761012091e-03 3.7706956060328416e-02 0.0000000000000000e+00  2.2624501944771267e-03 3.7095734202614333e-02 0.0000000000000000e+00  3.0384283175304326e-03 3.6440772257698123e-02 0.0000000000000000e+00  3.7802928622437172e-03 3.5744399074281397e-02 0.0000000000000000e+00  4.4851193068869847e-03 3.5010524072731128e-02 0.0000000000000000e+00  5.1517908451491042e-03 3.4241189255636115e-02 0.0000000000000000e+00  5.7777667174672091e-03 3.3440343549212430e-02 0.0000000000000000e+00  6.3618361936305760e-03 3.2611151746892358e-02 0.0000000000000000e+00  6.9034224751550370e-03 3.1756642794064281e-02 0.0000000000000000e+00  7.4008477985755879e-03 3.0880486179768012e-02 0.0000000000000000e+00  7.8534464575290442e-03 2.9986864506655678e-02 0.0000000000000000e+00  8.2608143048268513e-03 2.9078614366078073e-02 0.0000000000000000e+00  8.6222275511182757e-03 2.8160020058898488e-02 0.0000000000000000e+00  8.9386673533932617e-03 2.7233156356757205e-02 0.0000000000000000e+00  9.2094839888145746e-03 2.6302479404370492e-02 0.0000000000000000e+00  9.4352720213054294e-03 2.5371431982060239e-02 0.0000000000000000e+00  9.6168131353288888e-03 2.4442669505227017e-02 0.0000000000000000e+00  9.7547860788701965e-03 2.3519034366050198e-02 0.0000000000000000e+00  9.8497930761349030e-03 2.2604328623907339e-02 0.0000000000000000e+00  9.9032515776364422e-03 2.1700649665640882e-02 0.0000000000000000e+00  9.9161004736532266e-03 2.0811094460738481e-02 0.0000000000000000e+00  9.8895540927436305e-03 1.9938157161711548e-02 0.0000000000000000e+00  9.8255331969342493e-03 1.9083199784690991e-02 0.0000000000000000e+00  9.7250546170599035e-03 1.8249050296660418e-02 0.0000000000000000e+00  9.5896633475634884e-03 1.7437502307742946e-02 0.0000000000000000e+00  9.4211191812940930e-03 1.6650435973441739e-02 0.0000000000000000e+00  9.2211416380052792e-03 1.5888826830019524e-02 0.0000000000000000e+00  8.9911437322927768e-03 1.5155262202006610e-02 0.0000000000000000e+00  8.7326331064302015e-03 1.4450340627226787e-02 0.0000000000000000e+00  8.4475991343314575e-03 1.3775278676319396e-02 0.0000000000000000e+00  8.1374715029702317e-03 1.3131000139485566e-02 0.0000000000000000e+00  7.8040620690835935e-03 1.2518165376892508e-02 0.0000000000000000e+00  7.4487306921506491e-03 1.1938114105176119e-02 0.0000000000000000e+00  7.0732618292130940e-03 1.1391219124072776e-02 0.0000000000000000e+00  6.6791617072459730e-03 1.0878438912382446e-02 0.0000000000000000e+00  6.2677030778184118e-03 1.0399397179454555e-02 0.0000000000000000e+00  5.8406384420473982e-03 9.9552265344109107e-03 0.0000000000000000e+00  5.3991089952708880e-03 9.5459782749885615e-03 0.0000000000000000e+00  4.9448595364498596e-03 9.1715480932526624e-03 0.0000000000000000e+00  4.4789838351764668e-03 8.8328918588595848e-03 0.0000000000000000e+00  4.0026982539438146e-03 8.5305384661685160e-03 0.0000000000000000e+00  3.5175051130444416e-03 8.2633206609255081e-03 0.0000000000000000e+00  3.0243749320947987e-03 8.0320543536065402e-03 0.0000000000000000e+00  2.5246051151455572e-03 7.8366236735657614e-03 0.0000000000000000e+00  2.0194873904721892e-03 7.6771927479423185e-03 0.0000000000000000e+00  1.5099229153872700e-03 7.5533201551062235e-03 0.0000000000000000e+00  9.9751088857667931e-04 7.4658604328609922e-03 0.0000000000000000e+00  4.8284760910744792e-04 7.4147903293213750e-03 0.0000000000000000e+00  -3.2572718727388063e-05 7.3993769326378732e-03 0.0000000000000000e+00  -5.4786961158788188e-04 7.4199017599377599e-03 0.0000000000000000e+00  -1.0619913875535431e-03 7.4768370681954832e-03 0.0000000000000000e+00  -1.5735537971377619e-03 7.5699353746017210e-03 0.0000000000000000e+00  -2.0816341845359084e-03 7.6988387238414221e-03 0.0000000000000000e+00  -2.5850033301339035e-03 7.8634703929899401e-03 0.0000000000000000e+00  -3.0827624488357955e-03 8.0640162696925984e-03 0.0000000000000000e+00  -3.5734281001782286e-03 8.3002175342390908e-03 0.0000000000000000e+00  -4.0560266368571901e-03 8.5724534602657516e-03 0.0000000000000000e+00  -4.5291782938967637e-03 8.8801740384626803e-03 0.0000000000000000e+00  -4.9915857547777713e-03 9.2236859367406023e-03 0.0000000000000000e+00  -5.4422602978277841e-03 9.6018740055771028e-03 0.0000000000000000e+00  -5.8794200446013588e-03 1.0015446168942017e-02 0.0000000000000000e+00  -6.3021588927746957e-03 1.0463695927128111e-02 0.0000000000000000e+00  -6.7087937128179230e-03 1.0946316862843398e-02 0.0000000000000000e+00  -7.0978343625616560e-03 1.1462941235721766e-02 0.0000000000000000e+00  -7.4679379255356195e-03 1.2013125128388825e-02 0.0000000000000000e+00  -7.8173455560600954e-03 1.2596058250325514e-02 0.0000000000000000e+00  -8.1450257271138450e-03 1.3210791486636005e-02 0.0000000000000000e+00  -8.4486357092539849e-03 1.3857174199324312e-02 0.0000000000000000e+00  -8.7273751832245162e-03 1.4533819135956715e-02 0.0000000000000000e+00  -8.9791271721207776e-03 1.5239588179808855e-02 0.0000000000000000e+00  -9.2022414232553612e-03 1.5974266817565638e-02 0.0000000000000000e+00  -9.3952409329106316e-03 1.6736272077182424e-02 0.0000000000000000e+00  -9.5566059682496984e-03 1.7523127665053539e-02 0.0000000000000000e+00  -9.6849105982457842e-03 1.8333967342732283e-02 0.0000000000000000e+00  -9.7778763548251896e-03 1.9166779002694333e-02 0.0000000000000000e+00  -9.8351139494209389e-0