<?xml version="1.0"?>
<VTKFile type="UnstructuredGrid"  version="0.1"  >
<UnstructuredGrid>
<Piece  NumberOfPoints="16275" NumberOfCells="32468">
<Points>
<DataArray  type="Float64"  NumberOfComponents="3"  format="ascii">-0.5 0.5 0  0.5 0.5 0  0.5 -0.5 0  -0.5 -0.5 0  -1 1 0  1 1 0  1 -1 0  -1 -1 0  -0.4900000000000277 0.5 0  -0.4800000000000555 0.5 0  -0.4700000000000832 0.5 0  -0.4600000000001109 0.5 0  -0.4500000000001387 0.5 0  -0.4400000000001664 0.5 0  -0.4300000000001942 0.5 0  -0.4200000000002219 0.5 0  -0.4100000000002497 0.5 0  -0.4000000000002774 0.5 0  -0.3900000000003052 0.5 0  -0.3800000000003328 0.5 0  -0.3700000000003606 0.5 0  -0.3600000000003883 0.5 0  -0.3500000000004161 0.5 0  -0.3400000000004438 0.5 0  -0.3300000000004716 0.5 0  -0.3200000000004993 0.5 0  -0.3100000000005271 0.5 0  -0.3000000000005548 0.5 0  -0.2900000000005825 0.5 0  -0.2800000000006103 0.5 0  -0.2700000000006381 0.5 0  -0.2600000000006658 0.5 0  -0.2500000000006935 0.5 0  -0.2400000000007212 0.5 0  -0.230000000000749 0.5 0  -0.2200000000007767 0.5 0  -0.2100000000008044 0.5 0  -0.2000000000008322 0.5 0  -0.19000000000086 0.5 0  -0.1800000000008877 0.5 0  -0.1700000000009154 0.5 0  -0.1600000000009431 0.5 0  -0.1500000000009709 0.5 0  -0.1400000000009986 0.5 0  -0.1300000000010264 0.5 0  -0.1200000000010541 0.5 0  -0.1100000000010818 0.5 0  -0.1000000000011096 0.5 0  -0.09000000000113734 0.5 0  -0.08000000000116503 0.5 0  -0.07000000000119283 0.5 0  -0.06000000000122058 0.5 0  -0.05000000000124827 0.5 0  -0.04000000000127607 0.5 0  -0.03000000000130376 0.5 0  -0.02000000000133151 0.5 0  -0.01000000000135925 0.5 0  -1.376121439022882e-12 0.5 0  0.009999999998640763 0.5 0  0.01999999999866864 0.5 0  0.02999999999869629 0.5 0  0.03999999999872406 0.5 0  0.04999999999875182 0.5 0  0.05999999999877947 0.5 0  0.06999999999880724 0.5 0  0.079999999998835 0.5 0  0.08999999999886266 0.5 0  0.09999999999889042 0.5 0  0.1099999999989182 0.5 0  0.1199999999989459 0.5 0  0.1299999999989737 0.5 0  0.1399999999990014 0.5 0  0.1499999999990291 0.5 0  0.1599999999990568 0.5 0  0.1699999999990847 0.5 0  0.1799999999991124 0.5 0  0.1899999999991401 0.5 0  0.1999999999991678 0.5 0  0.2099999999991955 0.5 0  0.2199999999992234 0.5 0  0.2299999999992511 0.5 0  0.2399999999992788 0.5 0  0.2499999999993066 0.5 0  0.2599999999993342 0.5 0  0.269999999999362 0.5 0  0.2799999999993897 0.5 0  0.2899999999994175 0.5 0  0.2999999999994452 0.5 0  0.3099999999994729 0.5 0  0.3199999999995007 0.5 0  0.3299999999995284 0.5 0  0.3399999999995562 0.5 0  0.3499999999995839 0.5 0  0.3599999999996116 0.5 0  0.3699999999996393 0.5 0  0.379999999999667 0.5 0  0.3899999999996949 0.5 0  0.3999999999997226 0.5 0  0.4099999999997503 0.5 0  0.419999999999778 0.5 0  0.4299999999998058 0.5 0  0.4399999999998336 0.5 0  0.4499999999998613 0.5 0  0.4599999999998891 0.5 0  0.4699999999999167 0.5 0  0.4799999999999445 0.5 0  0.4899999999999722 0.5 0  0.5 0.4900000000000277 0  0.5 0.4800000000000555 0  0.5 0.4700000000000832 0  0.5 0.4600000000001109 0  0.5 0.4500000000001387 0  0.5 0.4400000000001664 0  0.5 0.4300000000001942 0  0.5 0.4200000000002219 0  0.5 0.4100000000002497 0  0.5 0.4000000000002774 0  0.5 0.3900000000003052 0  0.5 0.3800000000003328 0  0.5 0.3700000000003606 0  0.5 0.3600000000003883 0  0.5 0.3500000000004161 0  0.5 0.3400000000004438 0  0.5 0.3300000000004716 0  0.5 0.3200000000004993 0  0.5 0.3100000000005271 0  0.5 0.3000000000005548 0  0.5 0.2900000000005825 0  0.5 0.2800000000006103 0  0.5 0.2700000000006381 0  0.5 0.2600000000006658 0  0.5 0.2500000000006935 0  0.5 0.2400000000007212 0  0.5 0.230000000000749 0  0.5 0.2200000000007767 0  0.5 0.2100000000008044 0  0.5 0.2000000000008322 0  0.5 0.19000000000086 0  0.5 0.1800000000008877 0  0.5 0.1700000000009154 0  0.5 0.1600000000009431 0  0.5 0.1500000000009709 0  0.5 0.1400000000009986 0  0.5 0.1300000000010264 0  0.5 0.1200000000010541 0  0.5 0.1100000000010818 0  0.5 0.1000000000011096 0  0.5 0.09000000000113734 0  0.5 0.08000000000116503 0  0.5 0.07000000000119283 0  0.5 0.06000000000122058 0  0.5 0.05000000000124827 0  0.5 0.04000000000127607 0  0.5 0.03000000000130376 0  0.5 0.02000000000133151 0  0.5 0.01000000000135925 0  0.5 1.376121439022882e-12 0  0.5 -0.009999999998640763 0  0.5 -0.01999999999866864 0  0.5 -0.02999999999869629 0  0.5 -0.03999999999872406 0  0.5 -0.04999999999875182 0  0.5 -0.05999999999877947 0  0.5 -0.06999999999880724 0  0.5 -0.079999999998835 0  0.5 -0.08999999999886266 0  0.5 -0.09999999999889042 0  0.5 -0.1099999999989182 0  0.5 -0.1199999999989459 0  0.5 -0.1299999999989737 0  0.5 -0.1399999999990014 0  0.5 -0.1499999999990291 0  0.5 -0.1599999999990568 0  0.5 -0.1699999999990847 0  0.5 -0.1799999999991124 0  0.5 -0.1899999999991401 0  0.5 -0.1999999999991678 0  0.5 -0.2099999999991955 0  0.5 -0.2199999999992234 0  0.5 -0.2299999999992511 0  0.5 -0.2399999999992788 0  0.5 -0.2499999999993066 0  0.5 -0.2599999999993342 0  0.5 -0.269999999999362 0  0.5 -0.2799999999993897 0  0.5 -0.2899999999994175 0  0.5 -0.2999999999994452 0  0.5 -0.3099999999994729 0  0.5 -0.3199999999995007 0  0.5 -0.3299999999995284 0  0.5 -0.3399999999995562 0  0.5 -0.3499999999995839 0  0.5 -0.3599999999996116 0  0.5 -0.3699999999996393 0  0.5 -0.379999999999667 0  0.5 -0.3899999999996949 0  0.5 -0.3999999999997226 0  0.5 -0.4099999999997503 0  0.5 -0.419999999999778 0  0.5 -0.4299999999998058 0  0.5 -0.4399999999998336 0  0.5 -0.4499999999998613 0  0.5 -0.4599999999998891 0  0.5 -0.4699999999999167 0  0.5 -0.4799999999999445 0  0.5 -0.4899999999999722 0  0.4900000000000277 -0.5 0  0.4800000000000555 -0.5 0  0.4700000000000832 -0.5 0  0.4600000000001109 -0.5 0  0.4500000000001387 -0.5 0  0.4400000000001664 -0.5 0  0.4300000000001942 -0.5 0  0.4200000000002219 -0.5 0  0.4100000000002497 -0.5 0  0.4000000000002774 -0.5 0  0.3900000000003052 -0.5 0  0.3800000000003328 -0.5 0  0.3700000000003606 -0.5 0  0.3600000000003883 -0.5 0  0.3500000000004161 -0.5 0  0.3400000000004438 -0.5 0  0.3300000000004716 -0.5 0  0.3200000000004993 -0.5 0  0.3100000000005271 -0.5 0  0.3000000000005548 -0.5 0  0.2900000000005825 -0.5 0  0.2800000000006103 -0.5 0  0.2700000000006381 -0.5 0  0.2600000000006658 -0.5 0  0.2500000000006935 -0.5 0  0.2400000000007212 -0.5 0  0.230000000000749 -0.5 0  0.2200000000007767 -0.5 0  0.2100000000008044 -0.5 0  0.2000000000008322 -0.5 0  0.19000000000086 -0.5 0  0.1800000000008877 -0.5 0  0.1700000000009154 -0.5 0  0.1600000000009431 -0.5 0  0.1500000000009709 -0.5 0  0.1400000000009986 -0.5 0  0.1300000000010264 -0.5 0  0.1200000000010541 -0.5 0  0.1100000000010818 -0.5 0  0.1000000000011096 -0.5 0  0.09000000000113734 -0.5 0  0.08000000000116503 -0.5 0  0.07000000000119283 -0.5 0  0.06000000000122058 -0.5 0  0.05000000000124827 -0.5 0  0.04000000000127607 -0.5 0  0.03000000000130376 -0.5 0  0.02000000000133151 -0.5 0  0.01000000000135925 -0.5 0  1.376121439022882e-12 -0.5 0  -0.009999999998640763 -0.5 0  -0.01999999999866864 -0.5 0  -0.02999999999869629 -0.5 0  -0.03999999999872406 -0.5 0  -0.04999999999875182 -0.5 0  -0.05999999999877947 -0.5 0  -0.06999999999880724 -0.5 0  -0.079999999998835 -0.5 0  -0.08999999999886266 -0.5 0  -0.09999999999889042 -0.5 0  -0.1099999999989182 -0.5 0  -0.1199999999989459 -0.5 0  -0.1299999999989737 -0.5 0  -0.1399999999990014 -0.5 0  -0.1499999999990291 -0.5 0  -0.1599999999990568 -0.5 0  -0.1699999999990847 -0.5 0  -0.1799999999991124 -0.5 0  -0.1899999999991401 -0.5 0  -0.1999999999991678 -0.5 0  -0.2099999999991955 -0.5 0  -0.2199999999992234 -0.5 0  -0.2299999999992511 -0.5 0  -0.2399999999992788 -0.5 0  -0.2499999999993066 -0.5 0  -0.2599999999993342 -0.5 0  -0.269999999999362 -0.5 0  -0.2799999999993897 -0.5 0  -0.2899999999994175 -0.5 0  -0.2999999999994452 -0.5 0  -0.3099999999994729 -0.5 0  -0.3199999999995007 -0.5 0  -0.3299999999995284 -0.5 0  -0.3399999999995562 -0.5 0  -0.3499999999995839 -0.5 0  -0.3599999999996116 -0.5 0  -0.3699999999996393 -0.5 0  -0.379999999999667 -0.5 0  -0.3899999999996949 -0.5 0  -0.3999999999997226 -0.5 0  -0.4099999999997503 -0.5 0  -0.419999999999778 -0.5 0  -0.4299999999998058 -0.5 0  -0.4399999999998336 -0.5 0  -0.4499999999998613 -0.5 0  -0.4599999999998891 -0.5 0  -0.4699999999999167 -0.5 0  -0.4799999999999445 -0.5 0  -0.4899999999999722 -0.5 0  -0.5 -0.4900000000000277 0  -0.5 -0.4800000000000555 0  -0.5 -0.4700000000000832 0  -0.5 -0.4600000000001109 0  -0.5 -0.4500000000001387 0  -0.5 -0.4400000000001664 0  -0.5 -0.4300000000001942 0  -0.5 -0.4200000000002219 0  -0.5 -0.4100000000002497 0  -0.5 -0.4000000000002774 0  -0.5 -0.3900000000003052 0  -0.5 -0.3800000000003328 0  -0.5 -0.3700000000003606 0  -0.5 -0.3600000000003883 0  -0.5 -0.3500000000004161 0  -0.5 -0.3400000000004438 0  -0.5 -0.3300000000004716 0  -0.5 -0.3200000000004993 0  -0.5 -0.3100000000005271 0  -0.5 -0.3000000000005548 0  -0.5 -0.2900000000005825 0  -0.5 -0.2800000000006103 0  -0.5 -0.2700000000006381 0  -0.5 -0.2600000000006658 0  -0.5 -0.2500000000006935 0  -0.5 -0.2400000000007212 0  -0.5 -0.230000000000749 0  -0.5 -0.2200000000007767 0  -0.5 -0.2100000000008044 0  -0.5 -0.2000000000008322 0  -0.5 -0.19000000000086 0  -0.5 -0.1800000000008877 0  -0.5 -0.1700000000009154 0  -0.5 -0.1600000000009431 0  -0.5 -0.1500000000009709 0  -0.5 -0.1400000000009986 0  -0.5 -0.1300000000010264 0  -0.5 -0.1200000000010541 0  -0.5 -0.1100000000010818 0  -0.5 -0.1000000000011096 0  -0.5 -0.09000000000113734 0  -0.5 -0.08000000000116503 0  -0.5 -0.07000000000119283 0  -0.5 -0.06000000000122058 0  -0.5 -0.05000000000124827 0  -0.5 -0.04000000000127607 0  -0.5 -0.03000000000130376 0  -0.5 -0.02000000000133151 0  -0.5 -0.01000000000135925 0  -0.5 -1.376121439022882e-12 0  -0.5 0.009999999998640763 0  -0.5 0.01999999999866864 0  -0.5 0.02999999999869629 0  -0.5 0.03999999999872406 0  -0.5 0.04999999999875182 0  -0.5 0.05999999999877947 0  -0.5 0.06999999999880724 0  -0.5 0.079999999998835 0  -0.5 0.08999999999886266 0  -0.5 0.09999999999889042
[...]
<PointData  Vectors="f_27-0"> 
<DataArray  type="Float64"  Name="f_27-0"  NumberOfComponents="3" format="ascii">1.0677010952975588e-03 4.6058103213646492e-02 0.0000000000000000e+00  -1.4972129447831048e-03 4.5922342892907399e-02 0.0000000000000000e+00  -5.5393013672081604e-05 3.9651511412053995e-02 0.0000000000000000e+00  2.0590830127388456e-04 3.9582028688717796e-02 0.0000000000000000e+00  -1.5103983017477414e-03 6.3066802546491649e-03 0.0000000000000000e+00  1.4698030361184802e-03 6.3129667044523200e-03 0.0000000000000000e+00  -1.0040257168292147e-03 6.2536953161016753e-03 0.0000000000000000e+00  1.0201501747142993e-03 6.2236647902642198e-03 0.0000000000000000e+00  2.2181622085632605e-03 4.5380472345688573e-02 0.0000000000000000e+00  3.3303778653101129e-03 4.4632661269810775e-02 0.0000000000000000e+00  4.3991532301031677e-03 4.3818862889540545e-02 0.0000000000000000e+00  5.4215069053573581e-03 4.2942530066360257e-02 0.0000000000000000e+00  6.3924686066328578e-03 4.2009081209674164e-02 0.0000000000000000e+00  7.3100075974765434e-03 4.1022116130253035e-02 0.0000000000000000e+00  8.1698013453246066e-03 3.9988345680454028e-02 0.0000000000000000e+00  8.9707637513418235e-03 3.8911877806783374e-02 0.0000000000000000e+00  9.7103074257944445e-03 3.7798315965565620e-02 0.0000000000000000e+00  1.0385816833922503e-02 3.6654029818620232e-02 0.0000000000000000e+00  1.0997706561543884e-02 3.5484245349823820e-02 0.0000000000000000e+00  1.1544969212998914e-02 3.4293724020315428e-02 0.0000000000000000e+00  1.2027292964586149e-02 3.3088768383059686e-02 0.0000000000000000e+00  1.2445490602643449e-02 3.1873355576283763e-02 0.0000000000000000e+00  1.2798678900032428e-02 3.0654876680670316e-02 0.0000000000000000e+00  1.3089261109076870e-02 2.9436432162483834e-02 0.0000000000000000e+00  1.3318130650672607e-02 2.8222590646718382e-02 0.0000000000000000e+00  1.3486242982621433e-02 2.7018956612450205e-02 0.0000000000000000e+00  1.3595946437721690e-02 2.5829416745620750e-02 0.0000000000000000e+00  1.3649360572013871e-02 2.4656666353816588e-02 0.0000000000000000e+00  1.3648073580727053e-02 2.3505149167883828e-02 0.0000000000000000e+00  1.3594888832496241e-02 2.2377264662103335e-02 0.0000000000000000e+00  1.3492112503179150e-02 2.1275816532160371e-02 0.0000000000000000e+00  1.3341742656136883e-02 2.0205097692234948e-02 0.0000000000000000e+00  1.3146627087301795e-02 1.9165743057234300e-02 0.0000000000000000e+00  1.2909565822874412e-02 1.8160114900020150e-02 0.0000000000000000e+00  1.2632576344830620e-02 1.7189915325214244e-02 0.0000000000000000e+00  1.2318253854809336e-02 1.6257486565974005e-02 0.0000000000000000e+00  1.1969389761298814e-02 1.5362371776293989e-02 0.0000000000000000e+00  1.1588280577349779e-02 1.4506690916090966e-02 0.0000000000000000e+00  1.1177013885648974e-02 1.3691300251593827e-02 0.0000000000000000e+00  1.0738013631036767e-02 1.2916870756324337e-02 0.0000000000000000e+00  1.0273460693544513e-02 1.2184277420196678e-02 0.0000000000000000e+00  9.7855646474493529e-03 1.1493074945966969e-02 0.0000000000000000e+00  9.2760315514076267e-03 1.0843850945090962e-02 0.0000000000000000e+00  8.7468572803586740e-03 1.0236310548171534e-02 0.0000000000000000e+00  8.2000541981638048e-03 9.6715816676030773e-03 0.0000000000000000e+00  7.6370215338424892e-03 9.1488350614322370e-03 0.0000000000000000e+00  7.0595953735509654e-03 8.6679529904188663e-03 0.0000000000000000e+00  6.4692328480332973e-03 8.2297336233881340e-03 0.0000000000000000e+00  5.8675680510073859e-03 7.8332513817075192e-03 0.0000000000000000e+00  5.2559634204419085e-03 7.4778494194756981e-03 0.0000000000000000e+00  4.6353601385128841e-03 7.1650248430559869e-03 0.0000000000000000e+00  4.0072342765435486e-03 6.8933553854946634e-03 0.0000000000000000e+00  3.3726968059460253e-03 6.6629551196879799e-03 0.0000000000000000e+00  2.7327222756526907e-03 6.4734502632237323e-03 0.0000000000000000e+00  2.0889198322944585e-03 6.3254246594972767e-03 0.0000000000000000e+00  1.4417799164196292e-03 6.2179683715986676e-03 0.0000000000000000e+00  7.9286021652575874e-04 6.1509211049741962e-03 0.0000000000000000e+00  1.4257269820573370e-04 6.1250869811058147e-03 0.0000000000000000e+00  -5.0779904007715749e-04 6.1399848510647771e-03 0.0000000000000000e+00  -1.1570711808593819e-03 6.1948437890833822e-03 0.0000000000000000e+00  -1.8045999961311275e-03 6.2902793972102623e-03 0.0000000000000000e+00  -2.4490815583459169e-03 6.4268335112090211e-03 0.0000000000000000e+00  -3.0897535970105519e-03 6.6046190250488458e-03 0.0000000000000000e+00  -3.7252601846095501e-03 6.8231686508967628e-03 0.0000000000000000e+00  -4.3547412331603847e-03 7.0829151757704116e-03 0.0000000000000000e+00  -4.9768684826826479e-03 7.3836527326788682e-03 0.0000000000000000e+00  -5.5907014131331813e-03 7.7259536606317722e-03 0.0000000000000000e+00  -6.1948751009336684e-03 8.1093533290505660e-03 0.0000000000000000e+00  -6.7878244790206916e-03 8.5352125301232599e-03 0.0000000000000000e+00  -7.3686960444796015e-03 9.0024018025541882e-03 0.0000000000000000e+00  -7.9353728825219388e-03 9.5114779487571726e-03 0.0000000000000000e+00  -8.4866623718513282e-03 1.0062554364959467e-02 0.0000000000000000e+00  -9.0209515111269074e-03 1.0655395080762941e-02 0.0000000000000000e+00  -9.5361433385197213e-03 1.1290027369036452e-02 0.0000000000000000e+00  -1.0031045017244338e-02 1.1966745808736034e-02 0.0000000000000000e+00  -1.0502746635118848e-02 1.2685291734062654e-02 0.0000000000000000e+00  -1.0950432451901169e-02 1.3444888103056600e-02 0.0000000000000000e+00  -1.1370832999085109e-02 1.4245404942310899e-02 0.0000000000000000e+00  -1.1762475523092257e-02 1.5086799013872202e-02 0.0000000000000000e+00  -1.2123106841156937e-02 1.5966542721914567e-02 0.0000000000000000e+00  -1.2450091412675038e-02 1.6884387008331177e-02 0.0000000000000000e+00  -1.2741394061479181e-02 1.7840368900118253e-02 0.0000000000000000e+00  -1.2993918026241703e-02 1.8832189163305584e-02 0.0000000000000000e+00  -1.3206222626944375e-02 1.9858283726304823e-02 0.0000000000000000e+00  -1.3374389199718999e-02 2.0917580921798264e-02 0.0000000000000000e+00  -1.3497158212234879e-02 2.2005932714090320e-02 0.0000000000000000e+00  -1.3571524647188703e-02 2.3122978144651498e-02 0.0000000000000000e+00  -1.3594955010136110e-02 2.4265316462152887e-02 0.0000000000000000e+00  -1.3565430875011344e-02 2.5429896855473637e-02 0.0000000000000000e+00  -1.3480393866025970e-02 2.6613191708747774e-02 0.0000000000000000e+00  -1.3338246026159229e-02 2.7811976532067573e-02 0.0000000000000000e+00  -1.3136131706449139e-02 2.9023064587247169e-02 0.0000000000000000e+00  -1.2873647394499138e-02 3.0240142428679364e-02 0.0000000000000000e+00  -1.2548729702510263e-02 3.1460310754516788e-02 0.0000000000000000e+00  -1.2159855403111304e-02 3.2679104406065723e-02 0.0000000000000000e+00  -1.1706609914579221e-02 3.3890574338531258e-02 0.0000000000000000e+00  -1.1188614359504955e-02 3.5089635237643205e-02 0.0000000000000000e+00  -1.0605813779726657e-02 3.6270830291717113e-02 0.0000000000000000e+00  -9.9585346937502567e-03 3.7428994619794584e-02 0.0000000000000000e+00  -9.2465684612730772e-03 3.8559397507072719e-02 0.0000000000000000e+00  -8.4723226580011302e-03 3.9655155483445691e-02 0.0000000000000000e+00  -7.6371712205517738e-03 4.0711160718780073e-02 0.0000000000000000e+00  -6.7425713808966850e-03 4.1722719131745301e-02 0.0000000000000000e+00  -5.7928035087368825e-03 4.2682536431433979e-02 0.0000000000000000e+00  -4.7889703588382942e-03 4.3587614062456287e-02 0.0000000000000000e+00  -3.7356623239576158e-03 4.4432004842614274e-02 0.0000000000000000e+00  -2.6370984915127624e-03 4.5211491914464004e-02 0.0000000000000000e+00  -1.7638452761335622e-03 4.7110329102761320e-02 0.0000000000000000e+00  -2.0495315844073856e-03 4.8356873734110267e-02 0.0000000000000000e+00  -2.3539166982131389e-03 4.9668118966135176e-02 0.0000000000000000e+00  -2.6793208618023550e-03 5.1045787101048935e-02 0.0000000000000000e+00  -3.0262084365562927e-03 5.2496303843905502e-02 0.0000000000000000e+00  -3.3980136079497358e-03 5.4022573970802672e-02 0.0000000000000000e+00  -3.7910570251050461e-03 5.5630220950586041e-02 0.0000000000000000e+00  -4.2131246373110940e-03 5.7325698949741141e-02 0.0000000000000000e+00  -4.6647248825986186e-03 5.9113322298921786e-02 0.0000000000000000e+00  -5.1441729894616990e-03 6.1001237274220160e-02 0.0000000000000000e+00  -5.6560442143289043e-03 6.2995845808436507e-02 0.0000000000000000e+00  -6.2043205551828660e-03 6.5103366605383212e-02 0.0000000000000000e+00  -6.7911611422177059e-03 6.7334019233825287e-02 0.0000000000000000e+00  -7.4219565496757706e-03 6.9691980987530419e-02 0.0000000000000000e+00  -8.0964189303493143e-03 7.2190067610220537e-02 0.0000000000000000e+00  -8.8215849935606092e-03 7.4836156249994984e-02 0.0000000000000000e+00  -9.6049916317718764e-03 7.7635416517869399e-02 0.0000000000000000e+00  -1.0445676725678414e-02 8.0602806861464857e-02 0.0000000000000000e+00  -1.1351458048442006e-02 8.3742487706700938e-02 0.0000000000000000e+00  -1.2330749082771569e-02 8.7058377106536952e-02 0.0000000000000000e+00  -1.3380985115821194e-02 9.0560554308248525e-02 0.0000000000000000e+00  -1.4506522047247169e-02 9.4244917459984839e-02 0.0000000000000000e+00  -1.5697918967751651e-02 9.8108278597912102e-02 0.0000000000000000e+00  -1.6938164374784886e-02 1.0214067201348709e-01 0.0000000000000000e+00  -1.8188169557605986e-02 1.0632452376962703e-01 0.0000000000000000e+00  -1.9397771704841749e-02 1.1061399491641599e-01 0.0000000000000000e+00  -2.0458464663558894e-02 1.1496692581223027e-01 0.0000000000000000e+00  -2.1240984705197866e-02 1.1930646559997293e-01 0.0000000000000000e+00  -2.1503379045446667e-02 1.2352629442904063e-01 0.0000000000000000e+00  -2.0973961663352785e-02 1.2750517605589939e-01 0.0000000000000000e+00  -1.9256788720073741e-02 1.3107378936536671e-01 0.0000000000000000e+00  -1.5878646441745685e-02 1.3403991581259134e-01 0.0000000000000000e+00  -1.0307110322549599e-02 1.3614720504976266e-01 0.0000000000000000e+00  -2.0271197115108159e-03 1.3720334961532793e-01 0.0000000000000000e+00  9.2617786019606654e-03 1.3693479077469228e-01 0.0000000000000000e+00  2.3415242860044767e-02 1.3522635384852924e-01 0.0000000000000000e+00  3.9525202799506970e-02 1.3188397159526316e-01 0.0000000000000000e+00  5.5684540576702447e-02 1.2698822152755918e-01 0.0000000000000000e+00  6.8959736431291926e-02 1.2027444194097123e-01 0.0000000000000000e+00  7.5657058435250682e-02 1.1202872599991656e-01 0.0000000000000000e+00  7.1637928907353821e-02 1.0217874790967779e-01 0.0000000000000000e+00  5.3655174705494871e-02 9.1476039861737274e-02 0.0000000000000000e+00  2.0601220099359888e-02 8.2847256874218914e-02 0.0000000000000000e+00  -2.1078363702083953e-02 7.9775605242161943e-02 0.0000000000000000e+00  -5.8061454413333109e-02 8.6319819168854256e-02 0.0000000000000000e+00  -7.6073856498236739e-02 1.0272612117779617e-01 0.0000000000000000e+00  -7.2430698009058658e-02 1.2327447922759253e-01 0.0000000000000000e+00  -5.8889480682600054e-02 1.4163292605302788e-01 0.0000000000000000e+00  -4.5007203235418777e-02 1.5441967630624495e-01 0.0000000000000000e+00  -3.3553527568896152e-02 1.6243093650222049e-01 0.0000000000000000e+00  -2.4290783793928454e-02 1.6704279507534214e-01 0.0000000000000000e+00  -1.6660621776752149e-02 1.6919931318980350e-01 0.0000000000000000e+00  -1.0327639478132518e-02 1.6952045170538804e-01 0.0000000000000000e+00  -5.0261509499725235e-03 1.6842021474994634e-01 0.0000000000000000e+00  -6.4726695477128977e-04 1.6621137455287022e-01 0.0000000000000000e+00  2.9519355183406076e-03 1.6313723241451161e-01 0.0000000000000000e+00  5.8517960043462866e-03 1.5941321153386312e-01 0.0000000000000000e+00  8.1390744447480436e-03 1.5520468723729264e-01 0.0000000000000000e+00  9.8901758739166051e-03 1.5065486364982675e-01 0.0000000000000000e+00  1.1177580334028834e-02 1.4588026001309587e-01 0.0000000000000000e+00  1.2074675947189837e-02 1.4097213432827255e-01 0.0000000000000000e+00  1.2641595576187310e-02 1.3601531714795298e-01 0.0000000000000000e+00  1.2937465930292460e-02 1.3107541784856705e-01 0.0000000000000000e+00  1.3011011685482974e-02 1.2620005166597614e-01 0.0000000000000000e+00  1.2908124540943677e-02 1.2142980403731572e-01 0.0000000000000000e+00  1.2670269431141638e-02 1.1678987788431683e-01 0.0000000000000000e+00  1.2329812836489604e-02 1.1230843744184803e-01 0.0000000000000000e+00  1.1918046614505401e-02 1.0798546319324819e-01 0.0000000000000000e+00  1.1451465022801189e-02 1.0384618115764170e-01 0.0000000000000000e+00  1.0951525823436073e-02 9.9880333862335482e-02 0.0000000000000000e+00  1.0427870677321108e-02 9.6096281453691493e-02 0.0000000000000000e+00  9.8893945563124711e-03 9.2491996950224892e-02 0.0000000000000000e+00  9.3470831614720327e-03 8.9065356473605889e-02 0.0000000000000000e+00  8.8104069935444167e-03 8.5805206139485765e-02 0.0000000000000000e+00  8.2822529981906277e-03 8.2705431514862413e-02 0.0000000000000000e+00  7.7624169810327657e-03 7.9766567758869214e-02 0.0000000000000000e+00  7.2591236374068826e-03 7.6971838138223642e-02 0.0000000000000000e+00  6.7651669324754462e-03 7.4321058493645620e-02 0.0000000000000000e+00  6.2891224096626947e-03 7.1802385366845203e-02 0.0000000000000000e+00  5.8299469094351677e-03 6.9411465082266338e-02 0.0000000000000000e+00  5.3866881402780519e-03 6.7140547515886898e-02 0.0000000000000000e+00  4.9603414678780940e-03 6.4981715577977481e-02 0.0000000000000000e+00  4.5510875604721232e-03 6.2931041423461023e-02 0.0000000000000000e+00  4.1592436766591575e-03 6.0979118999923740e-02 0.0000000000000000e+00  3.7823967220216074e-03 5.9123725946860960e-02 0.0000000000000000e+00  3.4228772541446124e-03 5.7356250994071815e-02 0.0000000000000000e+00  3.0807019725638319e-03 5.5673841162899980e-02 0.0000000000000000e+00  2.7535040082770183e-03 5.4070257674545999e-02 0.0000000000000000e+00  2.4417084958057752e-03 5.2542395416498425e-02 0.0000000000000000e+00  2.1443156666393266e-03 5.1084641605193284e-02 0.0000000000000000e+00  1.8626784423613988e-03 4.9694305509392217e-02 0.0000000000000000e+00  1.5965229872348208e-03 4.8366385186528145e-02 0.0000000000000000e+00  1.3442640837125963e-03 4.7098925491387063e-02 0.0000000000000000e+00  1.1052208455394196e-03 4.5887827833858023e-02 0.0000000000000000e+00  8.8037292181520504e-04 4.4729846964576894e-02 0.0000000000000000e+00  6.6761903854710772e-04 4.3623036541575205e-02 0.0000000000000000e+00  4.6809767663562752e-04 4.2563556456105517e-02 0.0000000000000000e+00  2.8204883360879161e-04 4.1549768265931708e-02 0.0000000000000000e+00  1.0775981377319246e-04 4.0579790221780605e-02 0.0000000000000000e+00  8.3969850240939962e-04 3.9114650288557207e-02 0.0000000000000000e+00  1.7061244047127035e-03 3.8527102284262114e-02 0.0000000000000000e+00  2.5419041771246632e-03 3.7890634221055174e-02 0.0000000000000000e+00  3.3435582067552483e-03 3.7208618658265809e-02 0.0000000000000000e+00  4.1093426469701079e-03 3.6483507688807502e-02 0.0000000000000000e+00  4.8361912541815474e-03 3.5719507832897027e-02 0.0000000000000000e+00  5.5228948858262730e-03 3.4918840980331912e-02 0.0000000000000000e+00  6.1668461580349949e-03 3.4085745324151262e-02 0.0000000000000000e+00  6.7667413822786260e-03 3.3223467676381284e-02 0.0000000000000000e+00  7.3220425684551302e-03 3.2335090698066310e-02 0.0000000000000000e+00  7.8310260858365736e-03 3.1424685801651704e-02 0.0000000000000000e+00  8.2930199770362110e-03 3.0496776436321652e-02 0.0000000000000000e+00  8.7076182441615420e-03 2.9554249022976393e-02 0.0000000000000000e+00  9.0741382522212879e-03 2.8601545906336564e-02 0.0000000000000000e+00  9.3937225240045327e-03 2.7640837435442458e-02 0.0000000000000000e+00  9.6657497186925564e-03 2.6676855626957770e-02 0.0000000000000000e+00  9.8908679190318535e-03 2.5713174079792237e-02 0.0000000000000000e+00  1.0069988342164405e-02 2.4752569784658757e-02 0.0000000000000000e+00  1.0203859651873868e-02 2.3797946113431567e-02 0.0000000000000000e+00  1.0293239000724954e-02 2.2853233026162885e-02 0.0000000000000000e+00  1.0339634091772633e-02 2.1920616924959373e-02 0.0000000000000000e+00  1.0344094047173203e-02 2.1003287628601756e-02 0.0000000000000000e+00  1.0307936752539970e-02 2.0103784999387746e-02 0.0000000000000000e+00  1.0233225485450604e-02 1.9223436399664715e-02 0.0000000000000000e+00  1.0121062884864258e-02 1.8365187094861079e-02 0.0000000000000000e+00  9.9730830381496421e-03 1.7530835182451781e-02 0.0000000000000000e+00  9.7911576758405883e-03 1.6722255268179071e-02 0.0000000000000000e+00  9.5770912145340739e-03 1.5940344662304370e-02 0.0000000000000000e+00  9.3324110939686632e-03 1.5187778279611753e-02 0.0000000000000000e+00  9.0586968703414272e-03 1.4465092070312191e-02 0.0000000000000000e+00  8.7580348165258257e-03 1.3773459183353931e-02 0.0000000000000000e+00  8.4319266014312583e-03 1.3113821593032794e-02 0.0000000000000000e+00  8.0822169994943117e-03 1.2486814003148680e-02 0.0000000000000000e+00  7.7103323021920763e-03 1.1893711486484425e-02 0.0000000000000000e+00  7.3181148805095990e-03 1.1334790093532693e-02 0.0000000000000000e+00  6.9071277955348419e-03 1.0811044204558050e-02 0.0000000000000000e+00  6.4786428735242240e-03 1.0322076818066081e-02 0.0000000000000000e+00  6.0344481587970688e-03 9.8689019125556502e-03 0.0000000000000000e+00  5.5757298544772621e-03 9.4515045549841258e-03 0.0000000000000000e+00  5.1043009096515893e-03 9.0697969350991246e-03 0.0000000000000000e+00  4.6212656183172518e-03 8.7247803630944969e-03 0.0000000000000000e+00  4.1278444785289962e-03 8.4169351665960325e-03 0.0000000000000000e+00  3.6255012591073820e-03 8.1449512646050246e-03 0.0000000000000000e+00  3.1152150790144289e-03 7.9096583681833674e-03 0.0000000000000000e+00  2.5982938399748369e-03 7.7109239221626420e-03 0.0000000000000000e+00  2.0760525563227931e-03 7.5488875221583190e-03 0.0000000000000000e+00  1.5493854350850792e-03 7.4230740193956474e-03 0.0000000000000000e+00  1.0199304799861076e-03 7.3343832272688078e-03 0.0000000000000000e+00  4.8824476313649782e-04 7.2828219114894465e-03 0.0000000000000000e+00  -4.4218464566995945e-05 7.2675730223551917e-03 0.0000000000000000e+00  -5.7658041646031137e-04 7.2888483279309373e-03 0.0000000000000000e+00  -1.1077498413055453e-03 7.3471819348607473e-03 0.0000000000000000e+00  -1.6363106491737510e-03 7.4424014748700274e-03 0.0000000000000000e+00  -2.1613767666747185e-03 7.5741758002228887e-03 0.0000000000000000e+00  -2.6817577516549747e-03 7.7423795713356452e-03 0.0000000000000000e+00  -3.1965686501445123e-03 7.9471455982034651e-03 0.0000000000000000e+00  -3.7042551176974686e-03 8.1882589696241695e-03 0.0000000000000000e+00  -4.2038760952921713e-03 8.4662206626225436e-03 0.0000000000000000e+00  -4.6940176630068985e-03 8.7805041775159288e-03 0.0000000000000000e+00  -5.1733846728293847e-03 9.1314185724412199e-03 0.0000000000000000e+00  -5.6409649641871130e-03 9.5178199749777360e-03 0.0000000000000000e+00  -6.0949536044710619e-03 9.9405288575891461e-03 0.0000000000000000e+00  -6.5344661993104241e-03 1.0398831216228361e-02 0.0000000000000000e+00  -6.9577483889914395e-03 1.0892447853361643e-02 0.0000000000000000e+00  -7.3632651772589583e-03 1.1421116080728096e-02 0.0000000000000000e+00  -7.7496396095685970e-03 1.1984412510923121e-02 0.0000000000000000e+00  -8.1150252792850201e-03 1.2581519735978899e-02 0.0000000000000000e+00  -8.4583982678329284e-03 1.3211530272770385e-02 0.0000000000000000e+00  -8.7773137567763136e-03 1.3874327281776221e-02 0.0000000000000000e+00  -9.0709575416391686e-03 1.4568561997570244e-02 0.0000000000000000e+00  -9.3370768631524902e-03 1.5293107740591970e-02 0.0000000000000000e+00  -9.5739277945662976e-03 1.6047839201941097e-02 0.0000000000000000e+00  -9.7800069712152896e-03 1.6831117598678561e-02 0.0000000000000000e+00  -9.9536914780352648e-03 1.7640444891236163e-02 0.0000000000000000e+00  -1.0093482498306869e-02 1.8475043392536469e-02 0.0000000000000000e+00  -1.0196923274923848e-02 1.9332856521295232e-02 0.0000000000000000e+00  -1.0263567073928158e-0