<?xml version="1.0"?>
<VTKFile type="UnstructuredGrid"  version="0.1"  >
<UnstructuredGrid>
<Piece  NumberOfPoints="16275" NumberOfCells="32468">
<Points>
<DataArray  type="Float64"  NumberOfComponents="3"  format="ascii">-0.5 0.5 0  0.5 0.5 0  0.5 -0.5 0  -0.5 -0.5 0  -1 1 0  1 1 0  1 -1 0  -1 -1 0  -0.4900000000000277 0.5 0  -0.4800000000000555 0.5 0  -0.4700000000000832 0.5 0  -0.4600000000001109 0.5 0  -0.4500000000001387 0.5 0  -0.4400000000001664 0.5 0  -0.4300000000001942 0.5 0  -0.4200000000002219 0.5 0  -0.4100000000002497 0.5 0  -0.4000000000002774 0.5 0  -0.3900000000003052 0.5 0  -0.3800000000003328 0.5 0  -0.3700000000003606 0.5 0  -0.3600000000003883 0.5 0  -0.3500000000004161 0.5 0  -0.3400000000004438 0.5 0  -0.3300000000004716 0.5 0  -0.3200000000004993 0.5 0  -0.3100000000005271 0.5 0  -0.3000000000005548 0.5 0  -0.2900000000005825 0.5 0  -0.2800000000006103 0.5 0  -0.2700000000006381 0.5 0  -0.2600000000006658 0.5 0  -0.2500000000006935 0.5 0  -0.2400000000007212 0.5 0  -0.230000000000749 0.5 0  -0.2200000000007767 0.5 0  -0.2100000000008044 0.5 0  -0.2000000000008322 0.5 0  -0.19000000000086 0.5 0  -0.1800000000008877 0.5 0  -0.1700000000009154 0.5 0  -0.1600000000009431 0.5 0  -0.1500000000009709 0.5 0  -0.1400000000009986 0.5 0  -0.1300000000010264 0.5 0  -0.1200000000010541 0.5 0  -0.1100000000010818 0.5 0  -0.1000000000011096 0.5 0  -0.09000000000113734 0.5 0  -0.08000000000116503 0.5 0  -0.07000000000119283 0.5 0  -0.06000000000122058 0.5 0  -0.05000000000124827 0.5 0  -0.04000000000127607 0.5 0  -0.03000000000130376 0.5 0  -0.02000000000133151 0.5 0  -0.01000000000135925 0.5 0  -1.376121439022882e-12 0.5 0  0.009999999998640763 0.5 0  0.01999999999866864 0.5 0  0.02999999999869629 0.5 0  0.03999999999872406 0.5 0  0.04999999999875182 0.5 0  0.05999999999877947 0.5 0  0.06999999999880724 0.5 0  0.079999999998835 0.5 0  0.08999999999886266 0.5 0  0.09999999999889042 0.5 0  0.1099999999989182 0.5 0  0.1199999999989459 0.5 0  0.1299999999989737 0.5 0  0.1399999999990014 0.5 0  0.1499999999990291 0.5 0  0.1599999999990568 0.5 0  0.1699999999990847 0.5 0  0.1799999999991124 0.5 0  0.1899999999991401 0.5 0  0.1999999999991678 0.5 0  0.2099999999991955 0.5 0  0.2199999999992234 0.5 0  0.2299999999992511 0.5 0  0.2399999999992788 0.5 0  0.2499999999993066 0.5 0  0.2599999999993342 0.5 0  0.269999999999362 0.5 0  0.2799999999993897 0.5 0  0.2899999999994175 0.5 0  0.2999999999994452 0.5 0  0.3099999999994729 0.5 0  0.3199999999995007 0.5 0  0.3299999999995284 0.5 0  0.3399999999995562 0.5 0  0.3499999999995839 0.5 0  0.3599999999996116 0.5 0  0.3699999999996393 0.5 0  0.379999999999667 0.5 0  0.3899999999996949 0.5 0  0.3999999999997226 0.5 0  0.4099999999997503 0.5 0  0.419999999999778 0.5 0  0.4299999999998058 0.5 0  0.4399999999998336 0.5 0  0.4499999999998613 0.5 0  0.4599999999998891 0.5 0  0.4699999999999167 0.5 0  0.4799999999999445 0.5 0  0.4899999999999722 0.5 0  0.5 0.4900000000000277 0  0.5 0.4800000000000555 0  0.5 0.4700000000000832 0  0.5 0.4600000000001109 0  0.5 0.4500000000001387 0  0.5 0.4400000000001664 0  0.5 0.4300000000001942 0  0.5 0.4200000000002219 0  0.5 0.4100000000002497 0  0.5 0.4000000000002774 0  0.5 0.3900000000003052 0  0.5 0.3800000000003328 0  0.5 0.3700000000003606 0  0.5 0.3600000000003883 0  0.5 0.3500000000004161 0  0.5 0.3400000000004438 0  0.5 0.3300000000004716 0  0.5 0.3200000000004993 0  0.5 0.3100000000005271 0  0.5 0.3000000000005548 0  0.5 0.2900000000005825 0  0.5 0.2800000000006103 0  0.5 0.2700000000006381 0  0.5 0.2600000000006658 0  0.5 0.2500000000006935 0  0.5 0.2400000000007212 0  0.5 0.230000000000749 0  0.5 0.2200000000007767 0  0.5 0.2100000000008044 0  0.5 0.2000000000008322 0  0.5 0.19000000000086 0  0.5 0.1800000000008877 0  0.5 0.1700000000009154 0  0.5 0.1600000000009431 0  0.5 0.1500000000009709 0  0.5 0.1400000000009986 0  0.5 0.1300000000010264 0  0.5 0.1200000000010541 0  0.5 0.1100000000010818 0  0.5 0.1000000000011096 0  0.5 0.09000000000113734 0  0.5 0.08000000000116503 0  0.5 0.07000000000119283 0  0.5 0.06000000000122058 0  0.5 0.05000000000124827 0  0.5 0.04000000000127607 0  0.5 0.03000000000130376 0  0.5 0.02000000000133151 0  0.5 0.01000000000135925 0  0.5 1.376121439022882e-12 0  0.5 -0.009999999998640763 0  0.5 -0.01999999999866864 0  0.5 -0.02999999999869629 0  0.5 -0.03999999999872406 0  0.5 -0.04999999999875182 0  0.5 -0.05999999999877947 0  0.5 -0.06999999999880724 0  0.5 -0.079999999998835 0  0.5 -0.08999999999886266 0  0.5 -0.09999999999889042 0  0.5 -0.1099999999989182 0  0.5 -0.1199999999989459 0  0.5 -0.1299999999989737 0  0.5 -0.1399999999990014 0  0.5 -0.1499999999990291 0  0.5 -0.1599999999990568 0  0.5 -0.1699999999990847 0  0.5 -0.1799999999991124 0  0.5 -0.1899999999991401 0  0.5 -0.1999999999991678 0  0.5 -0.2099999999991955 0  0.5 -0.2199999999992234 0  0.5 -0.2299999999992511 0  0.5 -0.2399999999992788 0  0.5 -0.2499999999993066 0  0.5 -0.2599999999993342 0  0.5 -0.269999999999362 0  0.5 -0.2799999999993897 0  0.5 -0.2899999999994175 0  0.5 -0.2999999999994452 0  0.5 -0.3099999999994729 0  0.5 -0.3199999999995007 0  0.5 -0.3299999999995284 0  0.5 -0.3399999999995562 0  0.5 -0.3499999999995839 0  0.5 -0.3599999999996116 0  0.5 -0.3699999999996393 0  0.5 -0.379999999999667 0  0.5 -0.3899999999996949 0  0.5 -0.3999999999997226 0  0.5 -0.4099999999997503 0  0.5 -0.419999999999778 0  0.5 -0.4299999999998058 0  0.5 -0.4399999999998336 0  0.5 -0.4499999999998613 0  0.5 -0.4599999999998891 0  0.5 -0.4699999999999167 0  0.5 -0.4799999999999445 0  0.5 -0.4899999999999722 0  0.4900000000000277 -0.5 0  0.4800000000000555 -0.5 0  0.4700000000000832 -0.5 0  0.4600000000001109 -0.5 0  0.4500000000001387 -0.5 0  0.4400000000001664 -0.5 0  0.4300000000001942 -0.5 0  0.4200000000002219 -0.5 0  0.4100000000002497 -0.5 0  0.4000000000002774 -0.5 0  0.3900000000003052 -0.5 0  0.3800000000003328 -0.5 0  0.3700000000003606 -0.5 0  0.3600000000003883 -0.5 0  0.3500000000004161 -0.5 0  0.3400000000004438 -0.5 0  0.3300000000004716 -0.5 0  0.3200000000004993 -0.5 0  0.3100000000005271 -0.5 0  0.3000000000005548 -0.5 0  0.2900000000005825 -0.5 0  0.2800000000006103 -0.5 0  0.2700000000006381 -0.5 0  0.2600000000006658 -0.5 0  0.2500000000006935 -0.5 0  0.2400000000007212 -0.5 0  0.230000000000749 -0.5 0  0.2200000000007767 -0.5 0  0.2100000000008044 -0.5 0  0.2000000000008322 -0.5 0  0.19000000000086 -0.5 0  0.1800000000008877 -0.5 0  0.1700000000009154 -0.5 0  0.1600000000009431 -0.5 0  0.1500000000009709 -0.5 0  0.1400000000009986 -0.5 0  0.1300000000010264 -0.5 0  0.1200000000010541 -0.5 0  0.1100000000010818 -0.5 0  0.1000000000011096 -0.5 0  0.09000000000113734 -0.5 0  0.08000000000116503 -0.5 0  0.07000000000119283 -0.5 0  0.06000000000122058 -0.5 0  0.05000000000124827 -0.5 0  0.04000000000127607 -0.5 0  0.03000000000130376 -0.5 0  0.02000000000133151 -0.5 0  0.01000000000135925 -0.5 0  1.376121439022882e-12 -0.5 0  -0.009999999998640763 -0.5 0  -0.01999999999866864 -0.5 0  -0.02999999999869629 -0.5 0  -0.03999999999872406 -0.5 0  -0.04999999999875182 -0.5 0  -0.05999999999877947 -0.5 0  -0.06999999999880724 -0.5 0  -0.079999999998835 -0.5 0  -0.08999999999886266 -0.5 0  -0.09999999999889042 -0.5 0  -0.1099999999989182 -0.5 0  -0.1199999999989459 -0.5 0  -0.1299999999989737 -0.5 0  -0.1399999999990014 -0.5 0  -0.1499999999990291 -0.5 0  -0.1599999999990568 -0.5 0  -0.1699999999990847 -0.5 0  -0.1799999999991124 -0.5 0  -0.1899999999991401 -0.5 0  -0.1999999999991678 -0.5 0  -0.2099999999991955 -0.5 0  -0.2199999999992234 -0.5 0  -0.2299999999992511 -0.5 0  -0.2399999999992788 -0.5 0  -0.2499999999993066 -0.5 0  -0.2599999999993342 -0.5 0  -0.269999999999362 -0.5 0  -0.2799999999993897 -0.5 0  -0.2899999999994175 -0.5 0  -0.2999999999994452 -0.5 0  -0.3099999999994729 -0.5 0  -0.3199999999995007 -0.5 0  -0.3299999999995284 -0.5 0  -0.3399999999995562 -0.5 0  -0.3499999999995839 -0.5 0  -0.3599999999996116 -0.5 0  -0.3699999999996393 -0.5 0  -0.379999999999667 -0.5 0  -0.3899999999996949 -0.5 0  -0.3999999999997226 -0.5 0  -0.4099999999997503 -0.5 0  -0.419999999999778 -0.5 0  -0.4299999999998058 -0.5 0  -0.4399999999998336 -0.5 0  -0.4499999999998613 -0.5 0  -0.4599999999998891 -0.5 0  -0.4699999999999167 -0.5 0  -0.4799999999999445 -0.5 0  -0.4899999999999722 -0.5 0  -0.5 -0.4900000000000277 0  -0.5 -0.4800000000000555 0  -0.5 -0.4700000000000832 0  -0.5 -0.4600000000001109 0  -0.5 -0.4500000000001387 0  -0.5 -0.4400000000001664 0  -0.5 -0.4300000000001942 0  -0.5 -0.4200000000002219 0  -0.5 -0.4100000000002497 0  -0.5 -0.4000000000002774 0  -0.5 -0.3900000000003052 0  -0.5 -0.3800000000003328 0  -0.5 -0.3700000000003606 0  -0.5 -0.3600000000003883 0  -0.5 -0.3500000000004161 0  -0.5 -0.3400000000004438 0  -0.5 -0.3300000000004716 0  -0.5 -0.3200000000004993 0  -0.5 -0.3100000000005271 0  -0.5 -0.3000000000005548 0  -0.5 -0.2900000000005825 0  -0.5 -0.2800000000006103 0  -0.5 -0.2700000000006381 0  -0.5 -0.2600000000006658 0  -0.5 -0.2500000000006935 0  -0.5 -0.2400000000007212 0  -0.5 -0.230000000000749 0  -0.5 -0.2200000000007767 0  -0.5 -0.2100000000008044 0  -0.5 -0.2000000000008322 0  -0.5 -0.19000000000086 0  -0.5 -0.1800000000008877 0  -0.5 -0.1700000000009154 0  -0.5 -0.1600000000009431 0  -0.5 -0.1500000000009709 0  -0.5 -0.1400000000009986 0  -0.5 -0.1300000000010264 0  -0.5 -0.1200000000010541 0  -0.5 -0.1100000000010818 0  -0.5 -0.1000000000011096 0  -0.5 -0.09000000000113734 0  -0.5 -0.08000000000116503 0  -0.5 -0.07000000000119283 0  -0.5 -0.06000000000122058 0  -0.5 -0.05000000000124827 0  -0.5 -0.04000000000127607 0  -0.5 -0.03000000000130376 0  -0.5 -0.02000000000133151 0  -0.5 -0.01000000000135925 0  -0.5 -1.376121439022882e-12 0  -0.5 0.009999999998640763 0  -0.5 0.01999999999866864 0  -0.5 0.02999999999869629 0  -0.5 0.03999999999872406 0  -0.5 0.04999999999875182 0  -0.5 0.05999999999877947 0  -0.5 0.06999999999880724 0  -0.5 0.079999999998835 0  -0.5 0.08999999999886266 0  -0.5 0.09999999999889042
[...]
<PointData  Vectors="f_27-0"> 
<DataArray  type="Float64"  Name="f_27-0"  NumberOfComponents="3" format="ascii">6.1601855868392136e-04 4.3683172406280169e-02 0.0000000000000000e+00  -9.2076534617958460e-04 4.3647532384631087e-02 0.0000000000000000e+00  3.7960738480130173e-04 4.1561117242501958e-02 0.0000000000000000e+00  -1.7120833272946527e-04 4.1534195191121580e-02 0.0000000000000000e+00  -1.7001804149500736e-03 6.7142720520093025e-03 0.0000000000000000e+00  1.7792075147941057e-03 6.5790468802925184e-03 0.0000000000000000e+00  -1.5391110993472450e-03 6.7523332651744199e-03 0.0000000000000000e+00  1.6661336876601176e-03 6.5584587250506416e-03 0.0000000000000000e+00  1.6688814354477955e-03 4.3062486974420354e-02 0.0000000000000000e+00  2.6853825266458689e-03 4.2379009879576171e-02 0.0000000000000000e+00  3.6646473396441570e-03 4.1636477739071066e-02 0.0000000000000000e+00  4.6032420623680808e-03 4.0838705222523204e-02 0.0000000000000000e+00  5.4957871961533048e-03 3.9988928585539131e-02 0.0000000000000000e+00  6.3421411110812648e-03 3.9091414736745753e-02 0.0000000000000000e+00  7.1374334148808193e-03 3.8150412878522139e-02 0.0000000000000000e+00  7.8812333907518888e-03 3.7170662393636263e-02 0.0000000000000000e+00  8.5701694788089481e-03 3.6157207092154815e-02 0.0000000000000000e+00  9.2029644617766335e-03 3.5113224256662384e-02 0.0000000000000000e+00  9.7800673591304666e-03 3.4045643366700108e-02 0.0000000000000000e+00  1.0299278410971596e-02 3.2958088549223552e-02 0.0000000000000000e+00  1.0760584863686341e-02 3.1855021395766792e-02 0.0000000000000000e+00  1.1164443067184901e-02 3.0740657641871852e-02 0.0000000000000000e+00  1.1509860132663615e-02 2.9621603417382975e-02 0.0000000000000000e+00  1.1799033069748686e-02 2.8500749490761604e-02 0.0000000000000000e+00  1.2031980304099079e-02 2.7381402548359895e-02 0.0000000000000000e+00  1.2209810499784811e-02 2.6269313422322797e-02 0.0000000000000000e+00  1.2334281508273251e-02 2.5168103262806909e-02 0.0000000000000000e+00  1.2406684761937259e-02 2.4080343634433652e-02 0.0000000000000000e+00  1.2428748686064552e-02 2.3009631642377189e-02 0.0000000000000000e+00  1.2402442098308044e-02 2.1958831224302457e-02 0.0000000000000000e+00  1.2329945477740450e-02 2.0930604230558290e-02 0.0000000000000000e+00  1.2212649077542879e-02 1.9928554842674005e-02 0.0000000000000000e+00  1.2052834584746356e-02 1.8953779517379945e-02 0.0000000000000000e+00  1.1853748722440761e-02 1.8008837031882198e-02 0.0000000000000000e+00  1.1615732456259294e-02 1.7095629415687826e-02 0.0000000000000000e+00  1.1342672058446343e-02 1.6215888195655219e-02 0.0000000000000000e+00  1.1035557736658671e-02 1.5369347317225883e-02 0.0000000000000000e+00  1.0697558117136675e-02 1.4559314203692015e-02 0.0000000000000000e+00  1.0329526837120021e-02 1.3785239441379280e-02 0.0000000000000000e+00  9.9349834039979355e-03 1.3048576957463313e-02 0.0000000000000000e+00  9.5147422874561211e-03 1.2350889467193378e-02 0.0000000000000000e+00  9.0715662266085250e-03 1.1691873029816963e-02 0.0000000000000000e+00  8.6065826852640675e-03 1.1071547671279693e-02 0.0000000000000000e+00  8.1216129632058071e-03 1.0489076916463488e-02 0.0000000000000000e+00  7.6196964095661098e-03 9.9485207466038054e-03 0.0000000000000000e+00  7.0998372057107717e-03 9.4470606760050264e-03 0.0000000000000000e+00  6.5666892320638817e-03 8.9845795054506895e-03 0.0000000000000000e+00  6.0190251221460987e-03 8.5635232470949209e-03 0.0000000000000000e+00  5.4610604767219156e-03 8.1817483135544176e-03 0.0000000000000000e+00  4.8920368977871916e-03 7.8399531973505823e-03 0.0000000000000000e+00  4.3134873015870960e-03 7.5381103331332560e-03 0.0000000000000000e+00  3.7274549470599871e-03 7.2755495479828259e-03 0.0000000000000000e+00  3.1342626273552737e-03 7.0538094602122722e-03 0.0000000000000000e+00  2.5353081419490441e-03 6.8702725807558152e-03 0.0000000000000000e+00  1.9324564748519324e-03 6.7273182210725356e-03 0.0000000000000000e+00  1.3258309712808011e-03 6.6231799442063258e-03 0.0000000000000000e+00  7.1847626466332111e-04 6.5585061248401464e-03 0.0000000000000000e+00  1.0773143485562036e-04 6.5346032992667589e-03 0.0000000000000000e+00  -5.0243164076238696e-04 6.5489411194687083e-03 0.0000000000000000e+00  -1.1112198499773566e-03 6.6024738797436965e-03 0.0000000000000000e+00  -1.7182990179655008e-03 6.6952718828753215e-03 0.0000000000000000e+00  -2.3223886693829817e-03 6.8281386287657488e-03 0.0000000000000000e+00  -2.9225116064327292e-03 7.0006559388343832e-03 0.0000000000000000e+00  -3.5170847099147804e-03 7.2125389122706897e-03 0.0000000000000000e+00  -4.1057898565766372e-03 7.4638706468263261e-03 0.0000000000000000e+00  -4.6862078170308479e-03 7.7552261200437419e-03 0.0000000000000000e+00  -5.2587820433444427e-03 8.0871490127367059e-03 0.0000000000000000e+00  -5.8214607436344497e-03 8.4581281287814131e-03 0.0000000000000000e+00  -6.3721523150594862e-03 8.8692630411939984e-03 0.0000000000000000e+00  -6.9106824958146650e-03 9.3204959144413402e-03 0.0000000000000000e+00  -7.4349596599330714e-03 9.8107425475142829e-03 0.0000000000000000e+00  -7.9429601968509927e-03 1.0341386247360708e-02 0.0000000000000000e+00  -8.4342181133812612e-03 1.0911994268107952e-02 0.0000000000000000e+00  -8.9059016238779692e-03 1.1521442921025088e-02 0.0000000000000000e+00  -9.3572036205476373e-03 1.2170516066156593e-02 0.0000000000000000e+00  -9.7853618133481139e-03 1.2858675882491805e-02 0.0000000000000000e+00  -1.0189705763914973e-02 1.3584587295310596e-02 0.0000000000000000e+00  -1.0566802665003320e-02 1.4348521103843217e-02 0.0000000000000000e+00  -1.0914947552472005e-02 1.5150540702283411e-02 0.0000000000000000e+00  -1.1233822993719651e-02 1.5987186422800875e-02 0.0000000000000000e+00  -1.1518810362842980e-02 1.6857999447453427e-02 0.0000000000000000e+00  -1.1770117073833684e-02 1.7762911259769067e-02 0.0000000000000000e+00  -1.1982332241642265e-02 1.8700803380054979e-02 0.0000000000000000e+00  -1.2157843016659677e-02 1.9669384334250736e-02 0.0000000000000000e+00  -1.2290089920008412e-02 2.0666362926495374e-02 0.0000000000000000e+00  -1.2379264388254478e-02 2.1688116332938608e-02 0.0000000000000000e+00  -1.2422065351626446e-02 2.2735307411807001e-02 0.0000000000000000e+00  -1.2417450709856285e-02 2.3803390760016439e-02 0.0000000000000000e+00  -1.2363240059346862e-02 2.4889983765881595e-02 0.0000000000000000e+00  -1.2257219533504882e-02 2.5990647606715302e-02 0.0000000000000000e+00  -1.2097988766925931e-02 2.7103603926563587e-02 0.0000000000000000e+00  -1.1883750217954734e-02 2.8225504942653235e-02 0.0000000000000000e+00  -1.1614286797203305e-02 2.9350198445986419e-02 0.0000000000000000e+00  -1.1287771598868641e-02 3.0474902355812641e-02 0.0000000000000000e+00  -1.0903157872499966e-02 3.1595890262944563e-02 0.0000000000000000e+00  -1.0460536727336388e-02 3.2707771449757755e-02 0.0000000000000000e+00  -9.9596671026462025e-03 3.3806135767129548e-02 0.0000000000000000e+00  -9.4009844386347772e-03 3.4885542777171430e-02 0.0000000000000000e+00  -8.7844848944926193e-03 3.5942134012208936e-02 0.0000000000000000e+00  -8.1108574950151321e-03 3.6971258763192960e-02 0.0000000000000000e+00  -7.3823115401332306e-03 3.7967380961180151e-02 0.0000000000000000e+00  -6.6002405448049948e-03 3.8926514321680733e-02 0.0000000000000000e+00  -5.7664439887365523e-03 3.9844175723626592e-02 0.0000000000000000e+00  -4.8845801712188918e-03 4.0713772843761716e-02 0.0000000000000000e+00  -3.9545819550251297e-03 4.1533413757234176e-02 0.0000000000000000e+00  -2.9822916500740577e-03 4.2297284797314053e-02 0.0000000000000000e+00  -1.9706333615974502e-03 4.3002970835353135e-02 0.0000000000000000e+00  -1.1492718084930708e-03 4.4739345891359757e-02 0.0000000000000000e+00  -1.3922159983576175e-03 4.5879769125460941e-02 0.0000000000000000e+00  -1.6514026104241560e-03 4.7078347190353885e-02 0.0000000000000000e+00  -1.9265527270293445e-03 4.8334233573382263e-02 0.0000000000000000e+00  -2.2192632265353894e-03 4.9653792498782046e-02 0.0000000000000000e+00  -2.5353199682284378e-03 5.1041378442635822e-02 0.0000000000000000e+00  -2.8646767780568000e-03 5.2495600612315070e-02 0.0000000000000000e+00  -3.2168713681197114e-03 5.4028720206649734e-02 0.0000000000000000e+00  -3.5908170803987077e-03 5.5638719509646606e-02 0.0000000000000000e+00  -3.9856831396964075e-03 5.7336450051149325e-02 0.0000000000000000e+00  -4.4061976367467696e-03 5.9126417204778438e-02 0.0000000000000000e+00  -4.8533412014821163e-03 6.1011414372112646e-02 0.0000000000000000e+00  -5.3260886218550116e-03 6.3002782918551797e-02 0.0000000000000000e+00  -5.8276915080273089e-03 6.5101648649907431e-02 0.0000000000000000e+00  -6.3588520592568172e-03 6.7321343853195617e-02 0.0000000000000000e+00  -6.9242763631279375e-03 6.9669466462936536e-02 0.0000000000000000e+00  -7.5283371723875309e-03 7.2150047947285106e-02 0.0000000000000000e+00  -8.1654388768762701e-03 7.4777560784712344e-02 0.0000000000000000e+00  -8.8396694866004905e-03 7.7558422067936963e-02 0.0000000000000000e+00  -9.5605326222135325e-03 8.0498506284862339e-02 0.0000000000000000e+00  -1.0327362102493820e-02 8.3615004661952708e-02 0.0000000000000000e+00  -1.1142694387931727e-02 8.6909159815275611e-02 0.0000000000000000e+00  -1.2012792625450347e-02 9.0394082370993473e-02 0.0000000000000000e+00  -1.2923833293179436e-02 9.4069734126386625e-02 0.0000000000000000e+00  -1.3874453248988441e-02 9.7955560337016537e-02 0.0000000000000000e+00  -1.4866738343070373e-02 1.0202524848335311e-01 0.0000000000000000e+00  -1.5881359403109783e-02 1.0631042347282496e-01 0.0000000000000000e+00  -1.6872567616491932e-02 1.1075729100276130e-01 0.0000000000000000e+00  -1.7830453747614081e-02 1.1537215543910408e-01 0.0000000000000000e+00  -1.8684451125053219e-02 1.2011342487110760e-01 0.0000000000000000e+00  -1.9336472773612983e-02 1.2492477015548077e-01 0.0000000000000000e+00  -1.9641241373261450e-02 1.2972336501467024e-01 0.0000000000000000e+00  -1.9469681550483328e-02 1.3442970794859546e-01 0.0000000000000000e+00  -1.8598911051919131e-02 1.3888205811616361e-01 0.0000000000000000e+00  -1.6740840035628410e-02 1.4290893369477620e-01 0.0000000000000000e+00  -1.3619610425821096e-02 1.4629394696722603e-01 0.0000000000000000e+00  -8.7973920209733995e-03 1.4869727354021423e-01 0.0000000000000000e+00  -1.9210341764199651e-03 1.4985023117350593e-01 0.0000000000000000e+00  7.4747921696011153e-03 1.4923821274983548e-01 0.0000000000000000e+00  1.9560325128269270e-02 1.4649175496475186e-01 0.0000000000000000e+00  3.4452153697067278e-02 1.4096326813305843e-01 0.0000000000000000e+00  5.1556437162527363e-02 1.3238205448261434e-01 0.0000000000000000e+00  6.8904610167573085e-02 1.2036344882835735e-01 0.0000000000000000e+00  8.3119865566458451e-02 1.0518394605617271e-01 0.0000000000000000e+00  8.8439607040327523e-02 8.7523397675872444e-02 0.0000000000000000e+00  7.7994409932793815e-02 6.8828779412786631e-02 0.0000000000000000e+00  4.5898709801291952e-02 5.2338443874454757e-02 0.0000000000000000e+00  -5.0473136802093943e-03 4.1923370304343691e-02 0.0000000000000000e+00  -5.9876647412620033e-02 4.5393936722517937e-02 0.0000000000000000e+00  -9.1886516362390633e-02 6.5175954952954446e-02 0.0000000000000000e+00  -9.1409597756136815e-02 9.3088131449595241e-02 0.0000000000000000e+00  -7.4005214167400329e-02 1.1882272286737636e-01 0.0000000000000000e+00  -5.4807871091781285e-02 1.3702457095263326e-01 0.0000000000000000e+00  -3.8638360941447132e-02 1.4881454198176419e-01 0.0000000000000000e+00  -2.5653297873649832e-02 1.5597424461991613e-01 0.0000000000000000e+00  -1.5182976467455624e-02 1.5983706459114366e-01 0.0000000000000000e+00  -6.8044702732980101e-03 1.6118908229533638e-01 0.0000000000000000e+00  -1.9147879558870426e-04 1.6065649336009008e-01 0.0000000000000000e+00  4.9445942808271238e-03 1.5871488684628901e-01 0.0000000000000000e+00  8.8365391205223395e-03 1.5572908852012551e-01 0.0000000000000000e+00  1.1685133360800714e-02 1.5197760607780156e-01 0.0000000000000000e+00  1.3685377569586836e-02 1.4767641117917166e-01 0.0000000000000000e+00  1.4972965409378283e-02 1.4303012769806592e-01 0.0000000000000000e+00  1.5709822380794242e-02 1.3816740207072681e-01 0.0000000000000000e+00  1.6005979840592301e-02 1.3320489826443749e-01 0.0000000000000000e+00  1.5971904702325790e-02 1.2823256607063457e-01 0.0000000000000000e+00  1.5689607559998063e-02 1.2332305360145075e-01 0.0000000000000000e+00  1.5237716865100011e-02 1.1850570856282773e-01 0.0000000000000000e+00  1.4657442755944048e-02 1.1384251019140118e-01 0.0000000000000000e+00  1.4008148358240781e-02 1.0933498610504791e-01 0.0000000000000000e+00  1.3312835297559000e-02 1.0501289383523373e-01 0.0000000000000000e+00  1.2600064187922687e-02 1.0087748163924629e-01 0.0000000000000000e+00  1.1874779117139276e-02 9.6951958083311335e-02 0.0000000000000000e+00  1.1166324622532201e-02 9.3204345781739001e-02 0.0000000000000000e+00  1.0467810017373434e-02 8.9648020588581720e-02 0.0000000000000000e+00  9.7910007162692429e-03 8.6281773327363018e-02 0.0000000000000000e+00  9.1502286707676531e-03 8.3085239186473120e-02 0.0000000000000000e+00  8.5244346612830656e-03 8.0063018525592888e-02 0.0000000000000000e+00  7.9264030897978534e-03 7.7197619289454053e-02 0.0000000000000000e+00  7.3562917716601993e-03 7.4486837841018200e-02 0.0000000000000000e+00  6.8120664217395932e-03 7.1918642457771034e-02 0.0000000000000000e+00  6.2914823018835435e-03 6.9485365793268986e-02 0.0000000000000000e+00  5.7962641933962111e-03 6.7181615746660844e-02 0.0000000000000000e+00  5.3299409009487323e-03 6.4992819800006346e-02 0.0000000000000000e+00  4.8791525287871108e-03 6.2922494575921126e-02 0.0000000000000000e+00  4.4509261993641736e-03 6.0953381488721876e-02 0.0000000000000000e+00  4.0457911841817731e-03 5.9085421491813624e-02 0.0000000000000000e+00  3.6619021928466135e-03 5.7309064413626425e-02 0.0000000000000000e+00  3.2976176802756523e-03 5.5621384982096497e-02 0.0000000000000000e+00  2.9487870966317942e-03 5.4016826222681030e-02 0.0000000000000000e+00  2.6182431123494415e-03 5.2488717043023714e-02 0.0000000000000000e+00  2.3073529751737312e-03 5.1032738609302547e-02 0.0000000000000000e+00  2.0139993271557329e-03 4.9646547837769450e-02 0.0000000000000000e+00  1.7366574780607188e-03 4.8324268256397011e-02 0.0000000000000000e+00  1.4753459080572011e-03 4.7064269409839120e-02 0.0000000000000000e+00  1.2276105827400672e-03 4.5862100629829344e-02 0.0000000000000000e+00  9.9504835383503799e-04 4.4712497342122334e-02 0.0000000000000000e+00  7.7608639030630469e-04 4.3614913112477942e-02 0.0000000000000000e+00  5.7052098724623445e-04 4.2565936947509049e-02 0.0000000000000000e+00  1.3473248837202918e-03 4.0977499597239918e-02 0.0000000000000000e+00  2.2808275005632328e-03 4.0336076459036807e-02 0.0000000000000000e+00  3.1792064471566407e-03 3.9641189900378758e-02 0.0000000000000000e+00  4.0403509729506999e-03 3.8897886892365695e-02 0.0000000000000000e+00  4.8599576647584070e-03 3.8107037959241329e-02 0.0000000000000000e+00  5.6373856405724952e-03 3.7274539201317354e-02 0.0000000000000000e+00  6.3681304664151622e-03 3.6400694712207485e-02 0.0000000000000000e+00  7.0537423979939165e-03 3.5492506396546393e-02 0.0000000000000000e+00  7.6877220905978202e-03 3.4554809810025393e-02 0.0000000000000000e+00  8.2733082805802084e-03 3.3587524826386495e-02 0.0000000000000000e+00  8.8071549959303618e-03 3.2599599723143594e-02 0.0000000000000000e+00  9.2897632491640101e-03 3.1594208688527109e-02 0.0000000000000000e+00  9.7187290981661650e-03 3.0573363210234277e-02 0.0000000000000000e+00  1.0095782560494745e-02 2.9542726012528973e-02 0.0000000000000000e+00  1.0420550933450540e-02 2.8504914588449049e-02 0.0000000000000000e+00  1.0694051283011348e-02 2.7466873266704543e-02 0.0000000000000000e+00  1.0915130431048322e-02 2.6428785302385197e-02 0.0000000000000000e+00  1.1087611755813843e-02 2.5396466003407052e-02 0.0000000000000000e+00  1.1210163022103930e-02 2.4372605294937406e-02 0.0000000000000000e+00  1.1285312071967216e-02 2.3361083743178548e-02 0.0000000000000000e+00  1.1314316854741891e-02 2.2363964006231529e-02 0.0000000000000000e+00  1.1298152875140313e-02 2.1384939532492986e-02 0.0000000000000000e+00  1.1239303780091577e-02 2.0427074652510480e-02 0.0000000000000000e+00  1.1139092762908309e-02 1.9490394923459681e-02 0.0000000000000000e+00  1.0999151519820975e-02 1.8579349040738432e-02 0.0000000000000000e+00  1.0822142519712755e-02 1.7695000989871229e-02 0.0000000000000000e+00  1.0609121855481303e-02 1.6840207923683372e-02 0.0000000000000000e+00  1.0362786574778116e-02 1.6014308366615587e-02 0.0000000000000000e+00  1.0083746121187714e-02 1.5220655424640281e-02 0.0000000000000000e+00  9.7759342212392214e-03 1.4460498203220049e-02 0.0000000000000000e+00  9.4392960746329888e-03 1.3732710908040969e-02 0.0000000000000000e+00  9.0776980088625257e-03 1.3040025812954548e-02 0.0000000000000000e+00  8.6913731479847101e-03 1.2382493674073177e-02 0.0000000000000000e+00  8.2825973376939432e-03 1.1761968364456974e-02 0.0000000000000000e+00  7.8528833102016610e-03 1.1177129998893018e-02 0.0000000000000000e+00  7.4043053736318979e-03 1.0629387562733333e-02 0.0000000000000000e+00  6.9385871091367287e-03 1.0120354401183947e-02 0.0000000000000000e+00  6.4556769040681377e-03 9.6477647053423328e-03 0.0000000000000000e+00  5.9600930047352674e-03 9.2131452879126562e-03 0.0000000000000000e+00  5.4499356347810241e-03 8.8169490923983296e-03 0.0000000000000000e+00  4.9300210512220177e-03 8.4586136679144792e-03 0.0000000000000000e+00  4.3989147387560549e-03 8.1400572256059150e-03 0.0000000000000000e+00  3.8591177126609372e-03 7.8578035819813607e-03 0.0000000000000000e+00  3.3115125367959761e-03 7.6139396790054119e-03 0.0000000000000000e+00  2.7570162059118069e-03 7.4092084268302903e-03 0.0000000000000000e+00  2.1973372746131423e-03 7.2410891734683231e-03 0.0000000000000000e+00  1.6336316892142104e-03 7.1113718916608068e-03 0.0000000000000000e+00  1.0664010071119790e-03 7.0190946485469904e-03 0.0000000000000000e+00  4.9905616938048403e-04 6.9663715277888168e-03 0.0000000000000000e+00  -7.1479070306662156e-05 6.9526912907723120e-03 0.0000000000000000e+00  -6.4118909591456212e-04 6.9748335008878630e-03 0.0000000000000000e+00  -1.2093305338206650e-03 7.0360698445144044e-03 0.0000000000000000e+00  -1.7748872464072231e-03 7.1357388430502641e-03 0.0000000000000000e+00  -2.3370344694489029e-03 7.2735650332421712e-03 0.0000000000000000e+00  -2.8945627709601068e-03 7.4488849968036052e-03 0.0000000000000000e+00  -3.4463943139300922e-03 7.6623564666757184e-03 0.0000000000000000e+00  -3.9917804785838569e-03 7.9131027338253217e-03 0.0000000000000000e+00  -4.5282945439298677e-03 8.2030282399077926e-03 0.0000000000000000e+00  -5.0561678527355483e-03 8.5317561041510070e-03 0.0000000000000000e+00  -5.5732887262476809e-03 8.8985227751450860e-03 0.0000000000000000e+00  -6.0781812818541340e-03 9.3016244935167844e-03 0.0000000000000000e+00  -6.5695019513111264e-03 9.7440288701230397e-03 0.0000000000000000e+00  -7.0468416757632595e-03 1.0222865895921255e-02 0.0000000000000000e+00  -7.5070016929107116e-03 1.0739909281940742e-02 0.0000000000000000e+00  -7.9496872203469286e-03 1.1295046893248393e-02 0.0000000000000000e+00  -8.3728928419253678e-03 1.1886518434786275e-02 0.0000000000000000e+00  -8.7739993742182599e-03 1.2513821978263175e-02 0.0000000000000000e+00  -9.1530238898794216e-03 1.3177081452971607e-02 0.0000000000000000e+00  -9.5066742847881233e-03 1.3875443300590099e-02 0.0000000000000000e+00  -9.8347306993841182e-03 1.4607564952858339e-02 0.0000000000000000e+00  -1.0133324227665018e-02 1.5373428460711635e-02 0.0000000000000000e+00  -1.0402458511444966e-02 1.6172232753829383e-02 0.0000000000000000e+00  -1.0638583576182309e-02 1.7001888627623248e-02 0.0000000000000000e+00  -1.0841872093813468e-02 1.7859290777340258e-02 0.0000000000000000e+00  -1.1007045649048398e-02 1.8746793967758867e-02 0.0000000000000000e+00  -1.1136647637874999e-02 1.9661770794950101e-02 0.0000000000000000e+00  -1.1225881964678075