<?xml version="1.0"?>
<VTKFile type="UnstructuredGrid"  version="0.1"  >
<UnstructuredGrid>
<Piece  NumberOfPoints="16275" NumberOfCells="32468">
<Points>
<DataArray  type="Float64"  NumberOfComponents="3"  format="ascii">-0.5 0.5 0  0.5 0.5 0  0.5 -0.5 0  -0.5 -0.5 0  -1 1 0  1 1 0  1 -1 0  -1 -1 0  -0.4900000000000277 0.5 0  -0.4800000000000555 0.5 0  -0.4700000000000832 0.5 0  -0.4600000000001109 0.5 0  -0.4500000000001387 0.5 0  -0.4400000000001664 0.5 0  -0.4300000000001942 0.5 0  -0.4200000000002219 0.5 0  -0.4100000000002497 0.5 0  -0.4000000000002774 0.5 0  -0.3900000000003052 0.5 0  -0.3800000000003328 0.5 0  -0.3700000000003606 0.5 0  -0.3600000000003883 0.5 0  -0.3500000000004161 0.5 0  -0.3400000000004438 0.5 0  -0.3300000000004716 0.5 0  -0.3200000000004993 0.5 0  -0.3100000000005271 0.5 0  -0.3000000000005548 0.5 0  -0.2900000000005825 0.5 0  -0.2800000000006103 0.5 0  -0.2700000000006381 0.5 0  -0.2600000000006658 0.5 0  -0.2500000000006935 0.5 0  -0.2400000000007212 0.5 0  -0.230000000000749 0.5 0  -0.2200000000007767 0.5 0  -0.2100000000008044 0.5 0  -0.2000000000008322 0.5 0  -0.19000000000086 0.5 0  -0.1800000000008877 0.5 0  -0.1700000000009154 0.5 0  -0.1600000000009431 0.5 0  -0.1500000000009709 0.5 0  -0.1400000000009986 0.5 0  -0.1300000000010264 0.5 0  -0.1200000000010541 0.5 0  -0.1100000000010818 0.5 0  -0.1000000000011096 0.5 0  -0.09000000000113734 0.5 0  -0.08000000000116503 0.5 0  -0.07000000000119283 0.5 0  -0.06000000000122058 0.5 0  -0.05000000000124827 0.5 0  -0.04000000000127607 0.5 0  -0.03000000000130376 0.5 0  -0.02000000000133151 0.5 0  -0.01000000000135925 0.5 0  -1.376121439022882e-12 0.5 0  0.009999999998640763 0.5 0  0.01999999999866864 0.5 0  0.02999999999869629 0.5 0  0.03999999999872406 0.5 0  0.04999999999875182 0.5 0  0.05999999999877947 0.5 0  0.06999999999880724 0.5 0  0.079999999998835 0.5 0  0.08999999999886266 0.5 0  0.09999999999889042 0.5 0  0.1099999999989182 0.5 0  0.1199999999989459 0.5 0  0.1299999999989737 0.5 0  0.1399999999990014 0.5 0  0.1499999999990291 0.5 0  0.1599999999990568 0.5 0  0.1699999999990847 0.5 0  0.1799999999991124 0.5 0  0.1899999999991401 0.5 0  0.1999999999991678 0.5 0  0.2099999999991955 0.5 0  0.2199999999992234 0.5 0  0.2299999999992511 0.5 0  0.2399999999992788 0.5 0  0.2499999999993066 0.5 0  0.2599999999993342 0.5 0  0.269999999999362 0.5 0  0.2799999999993897 0.5 0  0.2899999999994175 0.5 0  0.2999999999994452 0.5 0  0.3099999999994729 0.5 0  0.3199999999995007 0.5 0  0.3299999999995284 0.5 0  0.3399999999995562 0.5 0  0.3499999999995839 0.5 0  0.3599999999996116 0.5 0  0.3699999999996393 0.5 0  0.379999999999667 0.5 0  0.3899999999996949 0.5 0  0.3999999999997226 0.5 0  0.4099999999997503 0.5 0  0.419999999999778 0.5 0  0.4299999999998058 0.5 0  0.4399999999998336 0.5 0  0.4499999999998613 0.5 0  0.4599999999998891 0.5 0  0.4699999999999167 0.5 0  0.4799999999999445 0.5 0  0.4899999999999722 0.5 0  0.5 0.4900000000000277 0  0.5 0.4800000000000555 0  0.5 0.4700000000000832 0  0.5 0.4600000000001109 0  0.5 0.4500000000001387 0  0.5 0.4400000000001664 0  0.5 0.4300000000001942 0  0.5 0.4200000000002219 0  0.5 0.4100000000002497 0  0.5 0.4000000000002774 0  0.5 0.3900000000003052 0  0.5 0.3800000000003328 0  0.5 0.3700000000003606 0  0.5 0.3600000000003883 0  0.5 0.3500000000004161 0  0.5 0.3400000000004438 0  0.5 0.3300000000004716 0  0.5 0.3200000000004993 0  0.5 0.3100000000005271 0  0.5 0.3000000000005548 0  0.5 0.2900000000005825 0  0.5 0.2800000000006103 0  0.5 0.2700000000006381 0  0.5 0.2600000000006658 0  0.5 0.2500000000006935 0  0.5 0.2400000000007212 0  0.5 0.230000000000749 0  0.5 0.2200000000007767 0  0.5 0.2100000000008044 0  0.5 0.2000000000008322 0  0.5 0.19000000000086 0  0.5 0.1800000000008877 0  0.5 0.1700000000009154 0  0.5 0.1600000000009431 0  0.5 0.1500000000009709 0  0.5 0.1400000000009986 0  0.5 0.1300000000010264 0  0.5 0.1200000000010541 0  0.5 0.1100000000010818 0  0.5 0.1000000000011096 0  0.5 0.09000000000113734 0  0.5 0.08000000000116503 0  0.5 0.07000000000119283 0  0.5 0.06000000000122058 0  0.5 0.05000000000124827 0  0.5 0.04000000000127607 0  0.5 0.03000000000130376 0  0.5 0.02000000000133151 0  0.5 0.01000000000135925 0  0.5 1.376121439022882e-12 0  0.5 -0.009999999998640763 0  0.5 -0.01999999999866864 0  0.5 -0.02999999999869629 0  0.5 -0.03999999999872406 0  0.5 -0.04999999999875182 0  0.5 -0.05999999999877947 0  0.5 -0.06999999999880724 0  0.5 -0.079999999998835 0  0.5 -0.08999999999886266 0  0.5 -0.09999999999889042 0  0.5 -0.1099999999989182 0  0.5 -0.1199999999989459 0  0.5 -0.1299999999989737 0  0.5 -0.1399999999990014 0  0.5 -0.1499999999990291 0  0.5 -0.1599999999990568 0  0.5 -0.1699999999990847 0  0.5 -0.1799999999991124 0  0.5 -0.1899999999991401 0  0.5 -0.1999999999991678 0  0.5 -0.2099999999991955 0  0.5 -0.2199999999992234 0  0.5 -0.2299999999992511 0  0.5 -0.2399999999992788 0  0.5 -0.2499999999993066 0  0.5 -0.2599999999993342 0  0.5 -0.269999999999362 0  0.5 -0.2799999999993897 0  0.5 -0.2899999999994175 0  0.5 -0.2999999999994452 0  0.5 -0.3099999999994729 0  0.5 -0.3199999999995007 0  0.5 -0.3299999999995284 0  0.5 -0.3399999999995562 0  0.5 -0.3499999999995839 0  0.5 -0.3599999999996116 0  0.5 -0.3699999999996393 0  0.5 -0.379999999999667 0  0.5 -0.3899999999996949 0  0.5 -0.3999999999997226 0  0.5 -0.4099999999997503 0  0.5 -0.419999999999778 0  0.5 -0.4299999999998058 0  0.5 -0.4399999999998336 0  0.5 -0.4499999999998613 0  0.5 -0.4599999999998891 0  0.5 -0.4699999999999167 0  0.5 -0.4799999999999445 0  0.5 -0.4899999999999722 0  0.4900000000000277 -0.5 0  0.4800000000000555 -0.5 0  0.4700000000000832 -0.5 0  0.4600000000001109 -0.5 0  0.4500000000001387 -0.5 0  0.4400000000001664 -0.5 0  0.4300000000001942 -0.5 0  0.4200000000002219 -0.5 0  0.4100000000002497 -0.5 0  0.4000000000002774 -0.5 0  0.3900000000003052 -0.5 0  0.3800000000003328 -0.5 0  0.3700000000003606 -0.5 0  0.3600000000003883 -0.5 0  0.3500000000004161 -0.5 0  0.3400000000004438 -0.5 0  0.3300000000004716 -0.5 0  0.3200000000004993 -0.5 0  0.3100000000005271 -0.5 0  0.3000000000005548 -0.5 0  0.2900000000005825 -0.5 0  0.2800000000006103 -0.5 0  0.2700000000006381 -0.5 0  0.2600000000006658 -0.5 0  0.2500000000006935 -0.5 0  0.2400000000007212 -0.5 0  0.230000000000749 -0.5 0  0.2200000000007767 -0.5 0  0.2100000000008044 -0.5 0  0.2000000000008322 -0.5 0  0.19000000000086 -0.5 0  0.1800000000008877 -0.5 0  0.1700000000009154 -0.5 0  0.1600000000009431 -0.5 0  0.1500000000009709 -0.5 0  0.1400000000009986 -0.5 0  0.1300000000010264 -0.5 0  0.1200000000010541 -0.5 0  0.1100000000010818 -0.5 0  0.1000000000011096 -0.5 0  0.09000000000113734 -0.5 0  0.08000000000116503 -0.5 0  0.07000000000119283 -0.5 0  0.06000000000122058 -0.5 0  0.05000000000124827 -0.5 0  0.04000000000127607 -0.5 0  0.03000000000130376 -0.5 0  0.02000000000133151 -0.5 0  0.01000000000135925 -0.5 0  1.376121439022882e-12 -0.5 0  -0.009999999998640763 -0.5 0  -0.01999999999866864 -0.5 0  -0.02999999999869629 -0.5 0  -0.03999999999872406 -0.5 0  -0.04999999999875182 -0.5 0  -0.05999999999877947 -0.5 0  -0.06999999999880724 -0.5 0  -0.079999999998835 -0.5 0  -0.08999999999886266 -0.5 0  -0.09999999999889042 -0.5 0  -0.1099999999989182 -0.5 0  -0.1199999999989459 -0.5 0  -0.1299999999989737 -0.5 0  -0.1399999999990014 -0.5 0  -0.1499999999990291 -0.5 0  -0.1599999999990568 -0.5 0  -0.1699999999990847 -0.5 0  -0.1799999999991124 -0.5 0  -0.1899999999991401 -0.5 0  -0.1999999999991678 -0.5 0  -0.2099999999991955 -0.5 0  -0.2199999999992234 -0.5 0  -0.2299999999992511 -0.5 0  -0.2399999999992788 -0.5 0  -0.2499999999993066 -0.5 0  -0.2599999999993342 -0.5 0  -0.269999999999362 -0.5 0  -0.2799999999993897 -0.5 0  -0.2899999999994175 -0.5 0  -0.2999999999994452 -0.5 0  -0.3099999999994729 -0.5 0  -0.3199999999995007 -0.5 0  -0.3299999999995284 -0.5 0  -0.3399999999995562 -0.5 0  -0.3499999999995839 -0.5 0  -0.3599999999996116 -0.5 0  -0.3699999999996393 -0.5 0  -0.379999999999667 -0.5 0  -0.3899999999996949 -0.5 0  -0.3999999999997226 -0.5 0  -0.4099999999997503 -0.5 0  -0.419999999999778 -0.5 0  -0.4299999999998058 -0.5 0  -0.4399999999998336 -0.5 0  -0.4499999999998613 -0.5 0  -0.4599999999998891 -0.5 0  -0.4699999999999167 -0.5 0  -0.4799999999999445 -0.5 0  -0.4899999999999722 -0.5 0  -0.5 -0.4900000000000277 0  -0.5 -0.4800000000000555 0  -0.5 -0.4700000000000832 0  -0.5 -0.4600000000001109 0  -0.5 -0.4500000000001387 0  -0.5 -0.4400000000001664 0  -0.5 -0.4300000000001942 0  -0.5 -0.4200000000002219 0  -0.5 -0.4100000000002497 0  -0.5 -0.4000000000002774 0  -0.5 -0.3900000000003052 0  -0.5 -0.3800000000003328 0  -0.5 -0.3700000000003606 0  -0.5 -0.3600000000003883 0  -0.5 -0.3500000000004161 0  -0.5 -0.3400000000004438 0  -0.5 -0.3300000000004716 0  -0.5 -0.3200000000004993 0  -0.5 -0.3100000000005271 0  -0.5 -0.3000000000005548 0  -0.5 -0.2900000000005825 0  -0.5 -0.2800000000006103 0  -0.5 -0.2700000000006381 0  -0.5 -0.2600000000006658 0  -0.5 -0.2500000000006935 0  -0.5 -0.2400000000007212 0  -0.5 -0.230000000000749 0  -0.5 -0.2200000000007767 0  -0.5 -0.2100000000008044 0  -0.5 -0.2000000000008322 0  -0.5 -0.19000000000086 0  -0.5 -0.1800000000008877 0  -0.5 -0.1700000000009154 0  -0.5 -0.1600000000009431 0  -0.5 -0.1500000000009709 0  -0.5 -0.1400000000009986 0  -0.5 -0.1300000000010264 0  -0.5 -0.1200000000010541 0  -0.5 -0.1100000000010818 0  -0.5 -0.1000000000011096 0  -0.5 -0.09000000000113734 0  -0.5 -0.08000000000116503 0  -0.5 -0.07000000000119283 0  -0.5 -0.06000000000122058 0  -0.5 -0.05000000000124827 0  -0.5 -0.04000000000127607 0  -0.5 -0.03000000000130376 0  -0.5 -0.02000000000133151 0  -0.5 -0.01000000000135925 0  -0.5 -1.376121439022882e-12 0  -0.5 0.009999999998640763 0  -0.5 0.01999999999866864 0  -0.5 0.02999999999869629 0  -0.5 0.03999999999872406 0  -0.5 0.04999999999875182 0  -0.5 0.05999999999877947 0  -0.5 0.06999999999880724 0  -0.5 0.079999999998835 0  -0.5 0.08999999999886266 0  -0.5 0.09999999999889042
[...]
<PointData  Vectors="f_27-0"> 
<DataArray  type="Float64"  Name="f_27-0"  NumberOfComponents="3" format="ascii">8.4363877796189636e-04 4.4881172804552553e-02 0.0000000000000000e+00  -1.2084827201233009e-03 4.4798879222995490e-02 0.0000000000000000e+00  1.4929265079735061e-04 4.0553873739833227e-02 0.0000000000000000e+00  2.8176311124133204e-05 4.0502717697072740e-02 0.0000000000000000e+00  -1.5370834008607210e-03 6.4024541357056118e-03 0.0000000000000000e+00  1.5224968059095235e-03 6.3772307889059581e-03 0.0000000000000000e+00  -1.1954796211932240e-03 6.4196274278583865e-03 0.0000000000000000e+00  1.2492112822506736e-03 6.3291679550305001e-03 0.0000000000000000e+00  1.9442056088683067e-03 4.4231918758320943e-02 0.0000000000000000e+00  3.0086352962876923e-03 4.3516509979015329e-02 0.0000000000000000e+00  4.0322296414394016e-03 4.2738741623607843e-02 0.0000000000000000e+00  5.0122428280717423e-03 4.1901835027737477e-02 0.0000000000000000e+00  5.9440601804821754e-03 4.1010660764999089e-02 0.0000000000000000e+00  6.8258192030873129e-03 4.0068601824096384e-02 0.0000000000000000e+00  7.6534771433610727e-03 3.9081798301411008e-02 0.0000000000000000e+00  8.4259141231373888e-03 3.8054187255050005e-02 0.0000000000000000e+00  9.1405772251943584e-03 3.6990790541108154e-02 0.0000000000000000e+00  9.7950646889671724e-03 3.5897263860471915e-02 0.0000000000000000e+00  1.0389698625681577e-02 3.4778709736172739e-02 0.0000000000000000e+00  1.0923383480379122e-02 3.3639702835527939e-02 0.0000000000000000e+00  1.1395653337243860e-02 3.2485980962424749e-02 0.0000000000000000e+00  1.1807169369213709e-02 3.1321248986588980e-02 0.0000000000000000e+00  1.2157025972947417e-02 3.0152458977490838e-02 0.0000000000000000e+00  1.2447331484856146e-02 2.8982627000289748e-02 0.0000000000000000e+00  1.2678803586696713e-02 2.7816020086143593e-02 0.0000000000000000e+00  1.2852259122628150e-02 2.6658007642588515e-02 0.0000000000000000e+00  1.2969748802832012e-02 2.5512392159063643e-02 0.0000000000000000e+00  1.3033185252628417e-02 2.4381756076672052e-02 0.0000000000000000e+00  1.3043954848058837e-02 2.3270326222013676e-02 0.0000000000000000e+00  1.3004622037657636e-02 2.2180554643710000e-02 0.0000000000000000e+00  1.2917277335077677e-02 2.1115209332215959e-02 0.0000000000000000e+00  1.2783739816686828e-02 2.0078364316736503e-02 0.0000000000000000e+00  1.2606648682241966e-02 1.9070853556987052e-02 0.0000000000000000e+00  1.2388604069844078e-02 1.8094996053212849e-02 0.0000000000000000e+00  1.2131477683940978e-02 1.7152588516359282e-02 0.0000000000000000e+00  1.1837688711082317e-02 1.6245858359996593e-02 0.0000000000000000e+00  1.1509887611910369e-02 1.5374535068024567e-02 0.0000000000000000e+00  1.1150241431259127e-02 1.4540884316354865e-02 0.0000000000000000e+00  1.0760741385474898e-02 1.3745691130296230e-02 0.0000000000000000e+00  1.0343749256518627e-02 1.2989704804516142e-02 0.0000000000000000e+00  9.9012991804966529e-03 1.2273979480003265e-02 0.0000000000000000e+00  9.4355320410951845e-03 1.1598205542638440e-02 0.0000000000000000e+00  8.9480495368136435e-03 1.0962902387851395e-02 0.0000000000000000e+00  8.4408727457466019e-03 1.0367833675395613e-02 0.0000000000000000e+00  7.9159483831512233e-03 9.8144692118609482e-03 0.0000000000000000e+00  7.3745682114673070e-03 9.3018646904621926e-03 0.0000000000000000e+00  6.8186060721367554e-03 8.8299048802284348e-03 0.0000000000000000e+00  6.2495340300944852e-03 8.3995717086463029e-03 0.0000000000000000e+00  5.6690454159574535e-03 8.0101360510479950e-03 0.0000000000000000e+00  5.0784084957467236e-03 7.6609775159831054e-03 0.0000000000000000e+00  4.4784907758129355e-03 7.3533801516788488e-03 0.0000000000000000e+00  3.8708416403220912e-03 7.0861216279710830e-03 0.0000000000000000e+00  3.2565704467621259e-03 6.8594748768795706e-03 0.0000000000000000e+00  2.6367112925490517e-03 6.6729575156068300e-03 0.0000000000000000e+00  2.0128780177890377e-03 6.5272235510771713e-03 0.0000000000000000e+00  1.3856387848912876e-03 6.4214651085365837e-03 0.0000000000000000e+00  7.5654567867526720e-04 6.3555724994362444e-03 0.0000000000000000e+00  1.2589099088920972e-04 6.3302931185201753e-03 0.0000000000000000e+00  -5.0489047209484566e-04 6.3450223416568136e-03 0.0000000000000000e+00  -1.1345295790987254e-03 6.3991345784032523e-03 0.0000000000000000e+00  -1.7623713254476419e-03 6.4933126520415052e-03 0.0000000000000000e+00  -2.3871313075277800e-03 6.6280466881465938e-03 0.0000000000000000e+00  -3.0080583000399977e-03 6.8033666707615140e-03 0.0000000000000000e+00  -3.6237693526104367e-03 7.0187347145232388e-03 0.0000000000000000e+00  -4.2332895163525149e-03 7.2745684442369046e-03 0.0000000000000000e+00  -4.8353114752518449e-03 7.5707936523421292e-03 0.0000000000000000e+00  -5.4289447167148418e-03 7.9079421051713242e-03 0.0000000000000000e+00  -6.0127572384443715e-03 8.2853326651794821e-03 0.0000000000000000e+00  -6.5851476473289408e-03 8.7042877173160397e-03 0.0000000000000000e+00  -7.1453017641768994e-03 9.1637139697961865e-03 0.0000000000000000e+00  -7.6911301947941895e-03 9.6639931380075057e-03 0.0000000000000000e+00  -8.2213509104778273e-03 1.0205253030508947e-02 0.0000000000000000e+00  -8.7344557067706753e-03 1.0787254333351485e-02 0.0000000000000000e+00  -9.2283639599512399e-03 1.1409862930190133e-02 0.0000000000000000e+00  -9.7018414382311138e-03 1.2073289199974935e-02 0.0000000000000000e+00  -1.0152118397808073e-02 1.2777162324159224e-02 0.0000000000000000e+00  -1.0578345644630671e-02 1.3520547907886349e-02 0.0000000000000000e+00  -1.0977333446535342e-02 1.4303454780818948e-02 0.0000000000000000e+00  -1.1347712715840546e-02 1.5125682705442971e-02 0.0000000000000000e+00  -1.1687370886482144e-02 1.5984546242456019e-02 0.0000000000000000e+00  -1.1993678788247806e-02 1.6879674782999916e-02 0.0000000000000000e+00  -1.2264738431391949e-02 1.7811118846968618e-02 0.0000000000000000e+00  -1.2497592591264145e-02 1.8776637761941203e-02 0.0000000000000000e+00  -1.2691041207493994e-02 1.9774468348792665e-02 0.0000000000000000e+00  -1.2841176364122226e-02 2.0803333318762926e-02 0.0000000000000000e+00  -1.2946914850461209e-02 2.1859273083605926e-02 0.0000000000000000e+00  -1.3005418875975235e-02 2.2941899535919803e-02 0.0000000000000000e+00  -1.3014455422966670e-02 2.4047795160005513e-02 0.0000000000000000e+00  -1.2972175960427516e-02 2.5173865385798789e-02 0.0000000000000000e+00  -1.2876198123339034e-02 2.6316648108780337e-02 0.0000000000000000e+00  -1.2725051429238420e-02 2.7473033472101119e-02 0.0000000000000000e+00  -1.2516315560497005e-02 2.8639979954361284e-02 0.0000000000000000e+00  -1.2249702969202003e-02 2.9811258214564450e-02 0.0000000000000000e+00  -1.1923354934978210e-02 3.0984102063307331e-02 0.0000000000000000e+00  -1.1535958845325104e-02 3.2154237708379690e-02 0.0000000000000000e+00  -1.1087332300473140e-02 3.3316136891034277e-02 0.0000000000000000e+00  -1.0577207977651760e-02 3.4464886380090376e-02 0.0000000000000000e+00  -1.0005749878752298e-02 3.5595326337969684e-02 0.0000000000000000e+00  -9.3733294685152419e-03 3.6702557269588522e-02 0.0000000000000000e+00  -8.6799744830316425e-03 3.7782228068563156e-02 0.0000000000000000e+00  -7.9280125364906487e-03 3.8827972949973442e-02 0.0000000000000000e+00  -7.1188945718946069e-03 3.9835135255735975e-02 0.0000000000000000e+00  -6.2541601937428680e-03 4.0799217687703754e-02 0.0000000000000000e+00  -5.3378339702301048e-03 4.1713538364506690e-02 0.0000000000000000e+00  -4.3709899286514036e-03 4.2575343231344376e-02 0.0000000000000000e+00  -3.3579188377618457e-03 4.3379203389600864e-02 0.0000000000000000e+00  -2.3025213573366812e-03 4.4121478947670059e-02 0.0000000000000000e+00  -1.4551375647427239e-03 4.5937865954674709e-02 0.0000000000000000e+00  -1.7191258746788569e-03 4.7131625926347509e-02 0.0000000000000000e+00  -2.0000749282178859e-03 4.8386105587269877e-02 0.0000000000000000e+00  -2.2996592492472781e-03 4.9702789935991594e-02 0.0000000000000000e+00  -2.6189374616674009e-03 5.1087866212984182e-02 0.0000000000000000e+00  -2.9609120776138810e-03 5.2543618971581704e-02 0.0000000000000000e+00  -3.3212092308640153e-03 5.4075093431659928e-02 0.0000000000000000e+00  -3.7067322607568518e-03 5.5688262699980486e-02 0.0000000000000000e+00  -4.1180287784542803e-03 5.7387276745929659e-02 0.0000000000000000e+00  -4.5535735799887055e-03 5.9179681383149663e-02 0.0000000000000000e+00  -5.0170819835085902e-03 6.1071031143470844e-02 0.0000000000000000e+00  -5.5110615534720402e-03 6.3067029775098662e-02 0.0000000000000000e+00  -6.0370890090655346e-03 6.5177252907679908e-02 0.0000000000000000e+00  -6.5993479584346166e-03 6.7405855976710810e-02 0.0000000000000000e+00  -7.1967688321294947e-03 6.9765053972471194e-02 0.0000000000000000e+00  -7.8357417278960353e-03 7.2262529165926834e-02 0.0000000000000000e+00  -8.5211234207041957e-03 7.4904074918251615e-02 0.0000000000000000e+00  -9.2507827138026653e-03 7.7704154011028106e-02 0.0000000000000000e+00  -1.0031576492188466e-02 8.0668862622919210e-02 0.0000000000000000e+00  -1.0870808072974820e-02 8.3804556467707750e-02 0.0000000000000000e+00  -1.1767538118941536e-02 8.7124552382718101e-02 0.0000000000000000e+00  -1.2727507999995544e-02 9.0631052938963355e-02 0.0000000000000000e+00  -1.3749087828633039e-02 9.4328764070812254e-02 0.0000000000000000e+00  -1.4825506345854401e-02 9.8218986285717624e-02 0.0000000000000000e+00  -1.5942025081866162e-02 1.0230194981121134e-01 0.0000000000000000e+00  -1.7085659392530182e-02 1.0655437063816170e-01 0.0000000000000000e+00  -1.8203699357899672e-02 1.1096236835054822e-01 0.0000000000000000e+00  -1.9249692891140459e-02 1.1548701697597716e-01 0.0000000000000000e+00  -2.0102678416358214e-02 1.2006782622402214e-01 0.0000000000000000e+00  -2.0640281437029399e-02 1.2463808755273417e-01 0.0000000000000000e+00  -2.0662985150989122e-02 1.2909174067626139e-01 0.0000000000000000e+00  -1.9906601067626612e-02 1.3328847205635491e-01 0.0000000000000000e+00  -1.8036116420405986e-02 1.3704410451239468e-01 0.0000000000000000e+00  -1.4655450586048500e-02 1.4014225790749932e-01 0.0000000000000000e+00  -9.2777228206324201e-03 1.4229665142789577e-01 0.0000000000000000e+00  -1.4299302093180254e-03 1.4322749535614757e-01 0.0000000000000000e+00  9.2447101746841835e-03 1.4255563078181202e-01 0.0000000000000000e+00  2.2852750961036634e-02 1.4004203648044386e-01 0.0000000000000000e+00  3.8869427839434256e-02 1.3530969161478998e-01 0.0000000000000000e+00  5.5790680084894489e-02 1.2841947557849090e-01 0.0000000000000000e+00  7.0867794479670357e-02 1.1917894727127763e-01 0.0000000000000000e+00  8.0195557724593414e-02 1.0789355728348481e-01 0.0000000000000000e+00  7.8513627264355193e-02 9.4894844117954430e-02 0.0000000000000000e+00  6.1892621576202587e-02 8.1453360256035251e-02 0.0000000000000000e+00  2.7877238846579624e-02 6.9820692060793152e-02 0.0000000000000000e+00  -1.8159731620093631e-02 6.4249056850745334e-02 0.0000000000000000e+00  -6.1419600343295577e-02 7.0109291457480766e-02 0.0000000000000000e+00  -8.4021323798568595e-02 8.8009371230719280e-02 0.0000000000000000e+00  -8.0940178792630102e-02 1.1213456373802499e-01 0.0000000000000000e+00  -6.4735330633581181e-02 1.3325801269859047e-01 0.0000000000000000e+00  -4.8243471015182851e-02 1.4793945148306997e-01 0.0000000000000000e+00  -3.4750973475175806e-02 1.5728752794324538e-01 0.0000000000000000e+00  -2.3953600076878009e-02 1.6273614511703505e-01 0.0000000000000000e+00  -1.5187799410277652e-02 1.6538394715971616e-01 0.0000000000000000e+00  -8.0809391714086638e-03 1.6595114701327590e-01 0.0000000000000000e+00  -2.2955890834446373e-03 1.6493112181790462e-01 0.0000000000000000e+00  2.3525312928116449e-03 1.6271398717842947e-01 0.0000000000000000e+00  6.0255202233673146e-03 1.5957300519512418e-01 0.0000000000000000e+00  8.8570360827727873e-03 1.5575641501738999e-01 0.0000000000000000e+00  1.0975844634354751e-02 1.5144554353099085e-01 0.0000000000000000e+00  1.2488526067114970e-02 1.4679892321699800e-01 0.0000000000000000e+00  1.3499130538447007e-02 1.4194084381568081e-01 0.0000000000000000e+00  1.4096823980996409e-02 1.3697972541025780e-01 0.0000000000000000e+00  1.4363534049234038e-02 1.3199379260405283e-01 0.0000000000000000e+00  1.4370011961952827e-02 1.2705096334152879e-01 0.0000000000000000e+00  1.4176531850855162e-02 1.2219645414084318e-01 0.0000000000000000e+00  1.3831924259112048e-02 1.1747323939610535e-01 0.0000000000000000e+00  1.3384789351923906e-02 1.1289243646713910e-01 0.0000000000000000e+00  1.2862842647414902e-02 1.0848982917967169e-01 0.0000000000000000e+00  1.2295325587272673e-02 1.0426125352305057e-01 0.0000000000000000e+00  1.1697170089036582e-02 1.0022051131887653e-01 0.0000000000000000e+00  1.1082430638811541e-02 9.6368541769822014e-02 0.0000000000000000e+00  1.0463393991829033e-02 9.2706792323505594e-02 0.0000000000000000e+00  9.8526412616648570e-03 8.9223795299421135e-02 0.0000000000000000e+00  9.2554813906826731e-03 8.5913604607470370e-02 0.0000000000000000e+00  8.6707140446748241e-03 8.2779008819530153e-02 0.0000000000000000e+00  8.1076096242317808e-03 7.9800828460926079e-02 0.0000000000000000e+00  7.5575098962295251e-03 7.6980255878215789e-02 0.0000000000000000e+00  7.0298538618823406e-03 7.4303677110920507e-02 0.0000000000000000e+00  6.5230604947992881e-03 7.1766518287042613e-02 0.0000000000000000e+00  6.0356711261687103e-03 6.9360263045434786e-02 0.0000000000000000e+00  5.5688141524162732e-03 6.7076002309783750e-02 0.0000000000000000e+00  5.1223956298668393e-03 6.4909376684579523e-02 0.0000000000000000e+00  4.6961171938994179e-03 6.2849976341374097e-02 0.0000000000000000e+00  4.2867345932625376e-03 6.0895436572503389e-02 0.0000000000000000e+00  3.8969541881444009e-03 5.9036039651024934e-02 0.0000000000000000e+00  3.5268053865462369e-03 5.7268471401070518e-02 0.0000000000000000e+00  3.1739408918506299e-03 5.5585714596357312e-02 0.0000000000000000e+00  2.8378604169400599e-03 5.3984774618882590e-02 0.0000000000000000e+00  2.5173344772867826e-03 5.2459005877476213e-02 0.0000000000000000e+00  2.2139794877851227e-03 5.1005563454954120e-02 0.0000000000000000e+00  1.9274759863147713e-03 4.9618678184701226e-02 0.0000000000000000e+00  1.6561725962383940e-03 4.8296303976522327e-02 0.0000000000000000e+00  1.3994381187165345e-03 4.7034132352998068e-02 0.0000000000000000e+00  1.1578482112697809e-03 4.5828751544977307e-02 0.0000000000000000e+00  9.2908963955173657e-04 4.4677707323246295e-02 0.0000000000000000e+00  7.1398080047383253e-04 4.3576725992400069e-02 0.0000000000000000e+00  5.1294832951050172e-04 4.2523706905165631e-02 0.0000000000000000e+00  3.2474649610627032e-04 4.1516931362232869e-02 0.0000000000000000e+00  1.0768511328244973e-03 3.9994791286569194e-02 0.0000000000000000e+00  1.9743647461092605e-03 3.9382281086619411e-02 0.0000000000000000e+00  2.8394549515087428e-03 3.8718770120533264e-02 0.0000000000000000e+00  3.6685901699110269e-03 3.8007919688297809e-02 0.0000000000000000e+00  4.4598186271077311e-03 3.7252090243479072e-02 0.0000000000000000e+00  5.2101563216708138e-03 3.6455854430085199e-02 0.0000000000000000e+00  5.9179641630189043e-03 3.5621564734419076e-02 0.0000000000000000e+00  6.5809801681805608e-03 3.4753906589824267e-02 0.0000000000000000e+00  7.1973849939309283e-03 3.3856296804445463e-02 0.0000000000000000e+00  7.7669682797988429e-03 3.2931598972408445e-02 0.0000000000000000e+00  8.2878949846412597e-03 3.1984625675754677e-02 0.0000000000000000e+00  8.7595781306494102e-03 3.1020260098800840e-02 0.0000000000000000e+00  9.1813961215602025e-03 3.0041250556677224e-02 0.0000000000000000e+00  9.5529055607025178e-03 2.9052230039827286e-02 0.0000000000000000e+00  9.8753181518834235e-03 2.8055612166437427e-02 0.0000000000000000e+00  1.0148189023759186e-02 2.7056399405397606e-02 0.0000000000000000e+00  1.0372049952650649e-02 2.6058117471795823e-02 0.0000000000000000e+00  1.0548189219603968e-02 2.5063946095013341e-02 0.0000000000000000e+00  1.0677114119619866e-02 2.4076765473810522e-02 0.0000000000000000e+00  1.0760083396384464e-02 2.3100458462975055e-02 0.0000000000000000e+00  1.0798518234738735e-02 2.2137474224260070e-02 0.0000000000000000e+00  1.0793675960457740e-02 2.1191084767646536e-02 0.0000000000000000e+00  1.0746932809201573e-02 2.0263848968847861e-02 0.0000000000000000e+00  1.0660524987468535e-02 1.9357051483976762e-02 0.0000000000000000e+00  1.0535672716908770e-02 1.8473745822790859e-02 0.0000000000000000e+00  1.0374093651696078e-02 1.7615728625358467e-02 0.0000000000000000e+00  1.0177783259032857e-02 1.6784943632470180e-02 0.0000000000000000e+00  9.9485582251250745e-03 1.5982056579873782e-02 0.0000000000000000e+00  9.6881360162829472e-03 1.5209909208864513e-02 0.0000000000000000e+00  9.3982385930525460e-03 1.4469001534795814e-02 0.0000000000000000e+00  9.0810001820450081e-03 1.3760351698758933e-02 0.0000000000000000e+00  8.7380276021237335e-03 1.3084937537015401e-02 0.0000000000000000e+00  8.3711611588675738e-03 1.2443463734019907e-02 0.0000000000000000e+00  7.9818540026372568e-03 1.1837145150882722e-02 0.0000000000000000e+00  7.5719996579819513e-03 1.1265925913246879e-02 0.0000000000000000e+00  7.1433660398934279e-03 1.0731021122294191e-02 0.0000000000000000e+00  6.6970496944324092e-03 1.0232081026250438e-02 0.0000000000000000e+00  6.2349509686575877e-03 9.7697630877090994e-03 0.0000000000000000e+00  5.7582769532211649e-03 9.3440800322678944e-03 0.0000000000000000e+00  5.2689504862839191e-03 8.9550381722706737e-03 0.0000000000000000e+00  4.7681109108747436e-03 8.6036550024432955e-03 0.0000000000000000e+00  4.2569443643543240e-03 8.2903573930016797e-03 0.0000000000000000e+00  3.7368069046686925e-03 8.0135325628620333e-03 0.0000000000000000e+00  3.2087243820761056e-03 7.7741633256783182e-03 0.0000000000000000e+00  2.6740167033986371e-03 7.5721433153109734e-03 0.0000000000000000e+00  2.1340547989275390e-03 7.4074537151476100e-03 0.0000000000000000e+00  1.5896964111508875e-03 7.2796879867212168e-03 0.0000000000000000e+00  1.0426056488947177e-03 7.1897200658021642e-03 0.0000000000000000e+00  4.9336884358408648e-04 7.1376891282399655e-03 0.0000000000000000e+00  -5.6790497727228061e-05 7.1226603456612048e-03 0.0000000000000000e+00  -6.0687052771715168e-04 7.1446068779274568e-03 0.0000000000000000e+00  -1.1556899377605989e-03 7.2042881416259016e-03 0.0000000000000000e+00  -1.7018270693529441e-03 7.3016616233223157e-03 0.0000000000000000e+00  -2.2444509651520718e-03 7.4363425689404150e-03 0.0000000000000000e+00  -2.7824751955075693e-03 7.6081304070988046e-03 0.0000000000000000e+00  -3.3150373779218816e-03 7.8171087760897789e-03 0.0000000000000000e+00  -3.8404062229121950e-03 8.0631054065036720e-03 0.0000000000000000e+00  -4.3577505780445745e-03 8.3468274189069953e-03 0.0000000000000000e+00  -4.8656166517828002e-03 8.6677999995173650e-03 0.0000000000000000e+00  -5.3627179263361488e-03 9.0262277719372081e-03 0.0000000000000000e+00  -5.8479735272787192e-03 9.4209222472554522e-03 0.0000000000000000e+00  -6.3195848110385953e-03 9.8529465583760047e-03 0.0000000000000000e+00  -6.7767663226435300e-03 1.0321445124952307e-02 0.0000000000000000e+00  -7.2175472407850702e-03 1.0826228143422042e-02 0.0000000000000000e+00  -7.6404369666544835e-03 1.1367272651476011e-02 0.0000000000000000e+00  -8.0440415365452805e-03 1.1944036173601989e-02 0.0000000000000000e+00  -8.4263540013388254e-03 1.2555693695412729e-02 0.0000000000000000e+00  -8.7863806011347963e-03 1.3201452116878232e-02 0.0000000000000000e+00  -9.1215522456442096e-03 1.3881157303975669e-02 0.0000000000000000e+00  -9.4310820013579141e-03 1.4593581823662849e-02 0.0000000000000000e+00  -9.7126132711428670e-03 1.5337645882884459e-02 0.0000000000000000e+00  -9.9642424682349195e-03 1.6113187259874231e-02 0.0000000000000000e+00  -1.0184441876754645e-02 1.6918519803111442e-02 0.0000000000000000e+00  -1.0371485133619254e-02 1.7751188730739938e-02 0.0000000000000000e+00  -1.0523661787690026e-02 1.8610723919901238e-02 0.0000000000000000e+00  -1.0638633346923753e-02 1.9494936028406736e-02 0.0000000000000000e+00  -1.0715624767353929e-0