<?xml version="1.0"?>
<VTKFile type="UnstructuredGrid"  version="0.1"  >
<UnstructuredGrid>
<Piece  NumberOfPoints="16275" NumberOfCells="32468">
<Points>
<DataArray  type="Float64"  NumberOfComponents="3"  format="ascii">-0.5 0.5 0  0.5 0.5 0  0.5 -0.5 0  -0.5 -0.5 0  -1 1 0  1 1 0  1 -1 0  -1 -1 0  -0.4900000000000277 0.5 0  -0.4800000000000555 0.5 0  -0.4700000000000832 0.5 0  -0.4600000000001109 0.5 0  -0.4500000000001387 0.5 0  -0.4400000000001664 0.5 0  -0.4300000000001942 0.5 0  -0.4200000000002219 0.5 0  -0.4100000000002497 0.5 0  -0.4000000000002774 0.5 0  -0.3900000000003052 0.5 0  -0.3800000000003328 0.5 0  -0.3700000000003606 0.5 0  -0.3600000000003883 0.5 0  -0.3500000000004161 0.5 0  -0.3400000000004438 0.5 0  -0.3300000000004716 0.5 0  -0.3200000000004993 0.5 0  -0.3100000000005271 0.5 0  -0.3000000000005548 0.5 0  -0.2900000000005825 0.5 0  -0.2800000000006103 0.5 0  -0.2700000000006381 0.5 0  -0.2600000000006658 0.5 0  -0.2500000000006935 0.5 0  -0.2400000000007212 0.5 0  -0.230000000000749 0.5 0  -0.2200000000007767 0.5 0  -0.2100000000008044 0.5 0  -0.2000000000008322 0.5 0  -0.19000000000086 0.5 0  -0.1800000000008877 0.5 0  -0.1700000000009154 0.5 0  -0.1600000000009431 0.5 0  -0.1500000000009709 0.5 0  -0.1400000000009986 0.5 0  -0.1300000000010264 0.5 0  -0.1200000000010541 0.5 0  -0.1100000000010818 0.5 0  -0.1000000000011096 0.5 0  -0.09000000000113734 0.5 0  -0.08000000000116503 0.5 0  -0.07000000000119283 0.5 0  -0.06000000000122058 0.5 0  -0.05000000000124827 0.5 0  -0.04000000000127607 0.5 0  -0.03000000000130376 0.5 0  -0.02000000000133151 0.5 0  -0.01000000000135925 0.5 0  -1.376121439022882e-12 0.5 0  0.009999999998640763 0.5 0  0.01999999999866864 0.5 0  0.02999999999869629 0.5 0  0.03999999999872406 0.5 0  0.04999999999875182 0.5 0  0.05999999999877947 0.5 0  0.06999999999880724 0.5 0  0.079999999998835 0.5 0  0.08999999999886266 0.5 0  0.09999999999889042 0.5 0  0.1099999999989182 0.5 0  0.1199999999989459 0.5 0  0.1299999999989737 0.5 0  0.1399999999990014 0.5 0  0.1499999999990291 0.5 0  0.1599999999990568 0.5 0  0.1699999999990847 0.5 0  0.1799999999991124 0.5 0  0.1899999999991401 0.5 0  0.1999999999991678 0.5 0  0.2099999999991955 0.5 0  0.2199999999992234 0.5 0  0.2299999999992511 0.5 0  0.2399999999992788 0.5 0  0.2499999999993066 0.5 0  0.2599999999993342 0.5 0  0.269999999999362 0.5 0  0.2799999999993897 0.5 0  0.2899999999994175 0.5 0  0.2999999999994452 0.5 0  0.3099999999994729 0.5 0  0.3199999999995007 0.5 0  0.3299999999995284 0.5 0  0.3399999999995562 0.5 0  0.3499999999995839 0.5 0  0.3599999999996116 0.5 0  0.3699999999996393 0.5 0  0.379999999999667 0.5 0  0.3899999999996949 0.5 0  0.3999999999997226 0.5 0  0.4099999999997503 0.5 0  0.419999999999778 0.5 0  0.4299999999998058 0.5 0  0.4399999999998336 0.5 0  0.4499999999998613 0.5 0  0.4599999999998891 0.5 0  0.4699999999999167 0.5 0  0.4799999999999445 0.5 0  0.4899999999999722 0.5 0  0.5 0.4900000000000277 0  0.5 0.4800000000000555 0  0.5 0.4700000000000832 0  0.5 0.4600000000001109 0  0.5 0.4500000000001387 0  0.5 0.4400000000001664 0  0.5 0.4300000000001942 0  0.5 0.4200000000002219 0  0.5 0.4100000000002497 0  0.5 0.4000000000002774 0  0.5 0.3900000000003052 0  0.5 0.3800000000003328 0  0.5 0.3700000000003606 0  0.5 0.3600000000003883 0  0.5 0.3500000000004161 0  0.5 0.3400000000004438 0  0.5 0.3300000000004716 0  0.5 0.3200000000004993 0  0.5 0.3100000000005271 0  0.5 0.3000000000005548 0  0.5 0.2900000000005825 0  0.5 0.2800000000006103 0  0.5 0.2700000000006381 0  0.5 0.2600000000006658 0  0.5 0.2500000000006935 0  0.5 0.2400000000007212 0  0.5 0.230000000000749 0  0.5 0.2200000000007767 0  0.5 0.2100000000008044 0  0.5 0.2000000000008322 0  0.5 0.19000000000086 0  0.5 0.1800000000008877 0  0.5 0.1700000000009154 0  0.5 0.1600000000009431 0  0.5 0.1500000000009709 0  0.5 0.1400000000009986 0  0.5 0.1300000000010264 0  0.5 0.1200000000010541 0  0.5 0.1100000000010818 0  0.5 0.1000000000011096 0  0.5 0.09000000000113734 0  0.5 0.08000000000116503 0  0.5 0.07000000000119283 0  0.5 0.06000000000122058 0  0.5 0.05000000000124827 0  0.5 0.04000000000127607 0  0.5 0.03000000000130376 0  0.5 0.02000000000133151 0  0.5 0.01000000000135925 0  0.5 1.376121439022882e-12 0  0.5 -0.009999999998640763 0  0.5 -0.01999999999866864 0  0.5 -0.02999999999869629 0  0.5 -0.03999999999872406 0  0.5 -0.04999999999875182 0  0.5 -0.05999999999877947 0  0.5 -0.06999999999880724 0  0.5 -0.079999999998835 0  0.5 -0.08999999999886266 0  0.5 -0.09999999999889042 0  0.5 -0.1099999999989182 0  0.5 -0.1199999999989459 0  0.5 -0.1299999999989737 0  0.5 -0.1399999999990014 0  0.5 -0.1499999999990291 0  0.5 -0.1599999999990568 0  0.5 -0.1699999999990847 0  0.5 -0.1799999999991124 0  0.5 -0.1899999999991401 0  0.5 -0.1999999999991678 0  0.5 -0.2099999999991955 0  0.5 -0.2199999999992234 0  0.5 -0.2299999999992511 0  0.5 -0.2399999999992788 0  0.5 -0.2499999999993066 0  0.5 -0.2599999999993342 0  0.5 -0.269999999999362 0  0.5 -0.2799999999993897 0  0.5 -0.2899999999994175 0  0.5 -0.2999999999994452 0  0.5 -0.3099999999994729 0  0.5 -0.3199999999995007 0  0.5 -0.3299999999995284 0  0.5 -0.3399999999995562 0  0.5 -0.3499999999995839 0  0.5 -0.3599999999996116 0  0.5 -0.3699999999996393 0  0.5 -0.379999999999667 0  0.5 -0.3899999999996949 0  0.5 -0.3999999999997226 0  0.5 -0.4099999999997503 0  0.5 -0.419999999999778 0  0.5 -0.4299999999998058 0  0.5 -0.4399999999998336 0  0.5 -0.4499999999998613 0  0.5 -0.4599999999998891 0  0.5 -0.4699999999999167 0  0.5 -0.4799999999999445 0  0.5 -0.4899999999999722 0  0.4900000000000277 -0.5 0  0.4800000000000555 -0.5 0  0.4700000000000832 -0.5 0  0.4600000000001109 -0.5 0  0.4500000000001387 -0.5 0  0.4400000000001664 -0.5 0  0.4300000000001942 -0.5 0  0.4200000000002219 -0.5 0  0.4100000000002497 -0.5 0  0.4000000000002774 -0.5 0  0.3900000000003052 -0.5 0  0.3800000000003328 -0.5 0  0.3700000000003606 -0.5 0  0.3600000000003883 -0.5 0  0.3500000000004161 -0.5 0  0.3400000000004438 -0.5 0  0.3300000000004716 -0.5 0  0.3200000000004993 -0.5 0  0.3100000000005271 -0.5 0  0.3000000000005548 -0.5 0  0.2900000000005825 -0.5 0  0.2800000000006103 -0.5 0  0.2700000000006381 -0.5 0  0.2600000000006658 -0.5 0  0.2500000000006935 -0.5 0  0.2400000000007212 -0.5 0  0.230000000000749 -0.5 0  0.2200000000007767 -0.5 0  0.2100000000008044 -0.5 0  0.2000000000008322 -0.5 0  0.19000000000086 -0.5 0  0.1800000000008877 -0.5 0  0.1700000000009154 -0.5 0  0.1600000000009431 -0.5 0  0.1500000000009709 -0.5 0  0.1400000000009986 -0.5 0  0.1300000000010264 -0.5 0  0.1200000000010541 -0.5 0  0.1100000000010818 -0.5 0  0.1000000000011096 -0.5 0  0.09000000000113734 -0.5 0  0.08000000000116503 -0.5 0  0.07000000000119283 -0.5 0  0.06000000000122058 -0.5 0  0.05000000000124827 -0.5 0  0.04000000000127607 -0.5 0  0.03000000000130376 -0.5 0  0.02000000000133151 -0.5 0  0.01000000000135925 -0.5 0  1.376121439022882e-12 -0.5 0  -0.009999999998640763 -0.5 0  -0.01999999999866864 -0.5 0  -0.02999999999869629 -0.5 0  -0.03999999999872406 -0.5 0  -0.04999999999875182 -0.5 0  -0.05999999999877947 -0.5 0  -0.06999999999880724 -0.5 0  -0.079999999998835 -0.5 0  -0.08999999999886266 -0.5 0  -0.09999999999889042 -0.5 0  -0.1099999999989182 -0.5 0  -0.1199999999989459 -0.5 0  -0.1299999999989737 -0.5 0  -0.1399999999990014 -0.5 0  -0.1499999999990291 -0.5 0  -0.1599999999990568 -0.5 0  -0.1699999999990847 -0.5 0  -0.1799999999991124 -0.5 0  -0.1899999999991401 -0.5 0  -0.1999999999991678 -0.5 0  -0.2099999999991955 -0.5 0  -0.2199999999992234 -0.5 0  -0.2299999999992511 -0.5 0  -0.2399999999992788 -0.5 0  -0.2499999999993066 -0.5 0  -0.2599999999993342 -0.5 0  -0.269999999999362 -0.5 0  -0.2799999999993897 -0.5 0  -0.2899999999994175 -0.5 0  -0.2999999999994452 -0.5 0  -0.3099999999994729 -0.5 0  -0.3199999999995007 -0.5 0  -0.3299999999995284 -0.5 0  -0.3399999999995562 -0.5 0  -0.3499999999995839 -0.5 0  -0.3599999999996116 -0.5 0  -0.3699999999996393 -0.5 0  -0.379999999999667 -0.5 0  -0.3899999999996949 -0.5 0  -0.3999999999997226 -0.5 0  -0.4099999999997503 -0.5 0  -0.419999999999778 -0.5 0  -0.4299999999998058 -0.5 0  -0.4399999999998336 -0.5 0  -0.4499999999998613 -0.5 0  -0.4599999999998891 -0.5 0  -0.4699999999999167 -0.5 0  -0.4799999999999445 -0.5 0  -0.4899999999999722 -0.5 0  -0.5 -0.4900000000000277 0  -0.5 -0.4800000000000555 0  -0.5 -0.4700000000000832 0  -0.5 -0.4600000000001109 0  -0.5 -0.4500000000001387 0  -0.5 -0.4400000000001664 0  -0.5 -0.4300000000001942 0  -0.5 -0.4200000000002219 0  -0.5 -0.4100000000002497 0  -0.5 -0.4000000000002774 0  -0.5 -0.3900000000003052 0  -0.5 -0.3800000000003328 0  -0.5 -0.3700000000003606 0  -0.5 -0.3600000000003883 0  -0.5 -0.3500000000004161 0  -0.5 -0.3400000000004438 0  -0.5 -0.3300000000004716 0  -0.5 -0.3200000000004993 0  -0.5 -0.3100000000005271 0  -0.5 -0.3000000000005548 0  -0.5 -0.2900000000005825 0  -0.5 -0.2800000000006103 0  -0.5 -0.2700000000006381 0  -0.5 -0.2600000000006658 0  -0.5 -0.2500000000006935 0  -0.5 -0.2400000000007212 0  -0.5 -0.230000000000749 0  -0.5 -0.2200000000007767 0  -0.5 -0.2100000000008044 0  -0.5 -0.2000000000008322 0  -0.5 -0.19000000000086 0  -0.5 -0.1800000000008877 0  -0.5 -0.1700000000009154 0  -0.5 -0.1600000000009431 0  -0.5 -0.1500000000009709 0  -0.5 -0.1400000000009986 0  -0.5 -0.1300000000010264 0  -0.5 -0.1200000000010541 0  -0.5 -0.1100000000010818 0  -0.5 -0.1000000000011096 0  -0.5 -0.09000000000113734 0  -0.5 -0.08000000000116503 0  -0.5 -0.07000000000119283 0  -0.5 -0.06000000000122058 0  -0.5 -0.05000000000124827 0  -0.5 -0.04000000000127607 0  -0.5 -0.03000000000130376 0  -0.5 -0.02000000000133151 0  -0.5 -0.01000000000135925 0  -0.5 -1.376121439022882e-12 0  -0.5 0.009999999998640763 0  -0.5 0.01999999999866864 0  -0.5 0.02999999999869629 0  -0.5 0.03999999999872406 0  -0.5 0.04999999999875182 0  -0.5 0.05999999999877947 0  -0.5 0.06999999999880724 0  -0.5 0.079999999998835 0  -0.5 0.08999999999886266 0  -0.5 0.09999999999889042
[...]
<PointData  Vectors="f_27-0"> 
<DataArray  type="Float64"  Name="f_27-0"  NumberOfComponents="3" format="ascii">1.0067864738484672e-03 4.5738821283290043e-02 0.0000000000000000e+00  -1.4182004891943863e-03 4.5618359848968025e-02 0.0000000000000000e+00  -2.0028174572168000e-06 3.9888298720073954e-02 0.0000000000000000e+00  1.5937553724567900e-04 3.9823278371113761e-02 0.0000000000000000e+00  -1.5085320657364520e-03 6.3179333927012981e-03 0.0000000000000000e+00  1.4704222171212642e-03 6.3208816817626546e-03 0.0000000000000000e+00  -1.0456562655677207e-03 6.2874587610100563e-03 0.0000000000000000e+00  1.0694745557551324e-03 6.2440744265127475e-03 0.0000000000000000e+00  2.1435486055120510e-03 4.5068964166788468e-02 0.0000000000000000e+00  3.2426485479264476e-03 4.4330047219579942e-02 0.0000000000000000e+00  4.2990339931462821e-03 4.3526151671147810e-02 0.0000000000000000e+00  5.3097885965367707e-03 4.2660648426079160e-02 0.0000000000000000e+00  6.2700499344503276e-03 4.1738820747933711e-02 0.0000000000000000e+00  7.1778206598138239e-03 4.0764197442358881e-02 0.0000000000000000e+00  8.0288568085029634e-03 3.9743328030501832e-02 0.0000000000000000e+00  8.8220614428149297e-03 3.8680265914926751e-02 0.0000000000000000e+00  9.5548673387112048e-03 3.7580458069987145e-02 0.0000000000000000e+00  1.0224702398291475e-02 3.6450101849290491e-02 0.0000000000000000e+00  1.0831949430867573e-02 3.5294356514786997e-02 0.0000000000000000e+00  1.1375585028267429e-02 3.4117924575212455e-02 0.0000000000000000e+00  1.1855258535721686e-02 3.2926978375150399e-02 0.0000000000000000e+00  1.2271732079575380e-02 3.1725414161356345e-02 0.0000000000000000e+00  1.2624111930104407e-02 3.0520494026262671e-02 0.0000000000000000e+00  1.2914720021138979e-02 2.9315298318342044e-02 0.0000000000000000e+00  1.3144405596452744e-02 2.8114320374899984e-02 0.0000000000000000e+00  1.3314073641213703e-02 2.6923098023701370e-02 0.0000000000000000e+00  1.3425995358752647e-02 2.5745485076287208e-02 0.0000000000000000e+00  1.3482235050829889e-02 2.4584157559624575e-02 0.0000000000000000e+00  1.3484321316491773e-02 2.3443506835086093e-02 0.0000000000000000e+00  1.3434991694516401e-02 2.2325934896375656e-02 0.0000000000000000e+00  1.3336495300386601e-02 2.1234241244168263e-02 0.0000000000000000e+00  1.3190774858085863e-02 2.0172666235195476e-02 0.0000000000000000e+00  1.3000627236903447e-02 1.9141893435207689e-02 0.0000000000000000e+00  1.2768795440674705e-02 1.8144277825706035e-02 0.0000000000000000e+00  1.2497256233218922e-02 1.7181543127270327e-02 0.0000000000000000e+00  1.2188554472623542e-02 1.6256012038303683e-02 0.0000000000000000e+00  1.1845450645804546e-02 1.5367278244525688e-02 0.0000000000000000e+00  1.1470199434406520e-02 1.4517485554614911e-02 0.0000000000000000e+00  1.1064865959569783e-02 1.3707489703136795e-02 0.0000000000000000e+00  1.0631851344223408e-02 1.2937986355563293e-02 0.0000000000000000e+00  1.0173302300459075e-02 1.2209886426091193e-02 0.0000000000000000e+00  9.6914079305318417e-03 1.1522778994147005e-02 0.0000000000000000e+00  9.1878552989510184e-03 1.0877252000102946e-02 0.0000000000000000e+00  8.6646351748957372e-03 1.0273027427906983e-02 0.0000000000000000e+00  8.1237449017924294e-03 9.7112951873327483e-03 0.0000000000000000e+00  7.5665657889574947e-03 9.1912226601000360e-03 0.0000000000000000e+00  6.9949347864128909e-03 8.7127012783083328e-03 0.0000000000000000e+00  6.4103137070874814e-03 8.2765559308663229e-03 0.0000000000000000e+00  5.8143457688583141e-03 7.8819188224881400e-03 0.0000000000000000e+00  5.2083802269212442e-03 7.5281417267696474e-03 0.0000000000000000e+00  4.5933418437110983e-03 7.2166893863581548e-03 0.0000000000000000e+00  3.9707182185594846e-03 6.9461765361633811e-03 0.0000000000000000e+00  3.3416256083121055e-03 6.7167425757866219e-03 0.0000000000000000e+00  2.7070520474418306e-03 6.5280148988545450e-03 0.0000000000000000e+00  2.0686066491890261e-03 6.3805801322129882e-03 0.0000000000000000e+00  1.4268012400806603e-03 6.2735596668151801e-03 0.0000000000000000e+00  7.8318633212524599e-04 6.2068004802173704e-03 0.0000000000000000e+00  1.3816759249506296e-04 6.1810926997031557e-03 0.0000000000000000e+00  -5.0695287229701768e-04 6.1959405629519642e-03 0.0000000000000000e+00  -1.1509693005334653e-03 6.2505946098297301e-03 0.0000000000000000e+00  -1.7932297159711857e-03 6.3456849146685812e-03 0.0000000000000000e+00  -2.4324331146440238e-03 6.4817483059525028e-03 0.0000000000000000e+00  -3.0678189195979685e-03 6.6588767276323513e-03 0.0000000000000000e+00  -3.6980224179904795e-03 6.8765819925508832e-03 0.0000000000000000e+00  -4.3221594188298023e-03 7.1352980169087383e-03 0.0000000000000000e+00  -4.9389054186158134e-03 7.4348400510391007e-03 0.0000000000000000e+00  -5.5473212406405561e-03 7.7757644012372553e-03 0.0000000000000000e+00  -6.1460333218265988e-03 8.1575711800430158e-03 0.0000000000000000e+00  -6.7334699341288573e-03 8.5816054785362045e-03 0.0000000000000000e+00  -7.3087806907922888e-03 9.0467350222548613e-03 0.0000000000000000e+00  -7.8698538601760619e-03 9.5534871638209094e-03 0.0000000000000000e+00  -8.4154854488637590e-03 1.0101964636313309e-02 0.0000000000000000e+00  -8.9440755904576907e-03 1.0691927225210139e-02 0.0000000000000000e+00  -9.4535373496753873e-03 1.1323369494741000e-02 0.0000000000000000e+00  -9.9426693540495287e-03 1.1996554760877097e-02 0.0000000000000000e+00  -1.0408590936646098e-02 1.2711200120853050e-02 0.0000000000000000e+00  -1.0850482282228371e-02 1.3466495072628220e-02 0.0000000000000000e+00  -1.1265100367911646e-02 1.4262328008841006e-02 0.0000000000000000e+00  -1.1650990470739350e-02 1.5098606953548749e-02 0.0000000000000000e+00  -1.2005931071648594e-02 1.5972781649925334e-02 0.0000000000000000e+00  -1.2327304877065143e-02 1.6884567488410863e-02 0.0000000000000000e+00  -1.2613101773644293e-02 1.7834001978095728e-02 0.0000000000000000e+00  -1.2860273649743435e-02 1.8818780604281521e-02 0.0000000000000000e+00  -1.3067420171479981e-02 1.9837295623647971e-02 0.0000000000000000e+00  -1.3230644671941386e-02 2.0888435566007554e-02 0.0000000000000000e+00  -1.3348740072518860e-02 2.1968093124897944e-02 0.0000000000000000e+00  -1.3418743629788767e-02 2.3075890043627024e-02 0.0000000000000000e+00  -1.3438192078996122e-02 2.4208415333189150e-02 0.0000000000000000e+00  -1.3405114859279497e-02 2.5362617418031606e-02 0.0000000000000000e+00  -1.3317011749743193e-02 2.6534989141045677e-02 0.0000000000000000e+00  -1.3172323282787220e-02 2.7722321956385621e-02 0.0000000000000000e+00  -1.2968297480350355e-02 2.8921467716808456e-02 0.0000000000000000e+00  -1.2704569967435238e-02 3.0126140859166570e-02 0.0000000000000000e+00  -1.2379139374401193e-02 3.1333482438054755e-02 0.0000000000000000e+00  -1.1990539775405170e-02 3.2539063261760495e-02 0.0000000000000000e+00  -1.1538418196266506e-02 3.3737050530780799e-02 0.0000000000000000e+00  -1.1022434388533467e-02 3.4922410214580382e-02 0.0000000000000000e+00  -1.0442595432790865e-02 3.6089767980327467e-02 0.0000000000000000e+00  -9.7992412178783631e-03 3.7234028787312905e-02 0.0000000000000000e+00  -9.0922282278984509e-03 3.8350563818489440e-02 0.0000000000000000e+00  -8.3239457676795737e-03 3.9432630501372620e-02 0.0000000000000000e+00  -7.4957935902049697e-03 4.0475244108808144e-02 0.0000000000000000e+00  -6.6092473590935339e-03 4.1473769232406858e-02 0.0000000000000000e+00  -5.6685233570799168e-03 4.2421084810592473e-02 0.0000000000000000e+00  -4.6747223345138169e-03 4.3314262596090634e-02 0.0000000000000000e+00  -3.6323488135183808e-03 4.4147504406183286e-02 0.0000000000000000e+00  -2.5455504723323179e-03 4.4916742834446327e-02 0.0000000000000000e+00  -1.6792887299639592e-03 4.6792937932117126e-02 0.0000000000000000e+00  -1.9589475513764761e-03 4.8025065588888326e-02 0.0000000000000000e+00  -2.2567750027900871e-03 4.9320799791624355e-02 0.0000000000000000e+00  -2.5750080805273154e-03 5.0681817365088651e-02 0.0000000000000000e+00  -2.9142190627907973e-03 5.2114434342851741e-02 0.0000000000000000e+00  -3.2776331282927075e-03 5.3621399671211052e-02 0.0000000000000000e+00  -3.6614371306491777e-03 5.5208205024719077e-02 0.0000000000000000e+00  -4.0732158109051727e-03 5.6881187321847028e-02 0.0000000000000000e+00  -4.5134794106735697e-03 5.8644604611417878e-02 0.0000000000000000e+00  -4.9805122575172136e-03 6.0506384614302411e-02 0.0000000000000000e+00  -5.4785911412926803e-03 6.2472759541720546e-02 0.0000000000000000e+00  -6.0113620045498736e-03 6.4549833729620976e-02 0.0000000000000000e+00  -6.5807826082707639e-03 6.6747658273685923e-02 0.0000000000000000e+00  -7.1919067596461694e-03 6.9070446203115032e-02 0.0000000000000000e+00  -7.8442468403460888e-03 7.1530866685460465e-02 0.0000000000000000e+00  -8.5444795795697696e-03 7.4136793763254744e-02 0.0000000000000000e+00  -9.2994814746989191e-03 7.6893640934096077e-02 0.0000000000000000e+00  -1.0108046309664621e-02 7.9816354094129502e-02 0.0000000000000000e+00  -1.0977648368127532e-02 8.2909806607280701e-02 0.0000000000000000e+00  -1.1916565479324265e-02 8.6178750857356351e-02 0.0000000000000000e+00  -1.2922864916522935e-02 8.9634536867872094e-02 0.0000000000000000e+00  -1.4001773550868443e-02 9.3275138386153089e-02 0.0000000000000000e+00  -1.5146797226582910e-02 9.7100017474347641e-02 0.0000000000000000e+00  -1.6344970014460464e-02 1.0110324168397106e-01 0.0000000000000000e+00  -1.7566060387073298e-02 1.0527296308292980e-01 0.0000000000000000e+00  -1.8773615435302534e-02 1.0957013849906930e-01 0.0000000000000000e+00  -1.9878965299820982e-02 1.1396231376926326e-01 0.0000000000000000e+00  -2.0781338457744648e-02 1.1838362735335679e-01 0.0000000000000000e+00  -2.1281233030903696e-02 1.2274148619679710e-01 0.0000000000000000e+00  -2.1155725952886003e-02 1.2693010757121517e-01 0.0000000000000000e+00  -2.0069453955273032e-02 1.3079593834937187e-01 0.0000000000000000e+00  -1.7614456767420655e-02 1.3415740751925381e-01 0.0000000000000000e+00  -1.3294117646641596e-02 1.3676563656227056e-01 0.0000000000000000e+00  -6.5804774504758783e-03 1.3840710453920593e-01 0.0000000000000000e+00  2.9692016995132727e-03 1.3878206477208366e-01 0.0000000000000000e+00  1.5526010042118695e-02 1.3770507022130934e-01 0.0000000000000000e+00  3.0697864637820160e-02 1.3492198332325267e-01 0.0000000000000000e+00  4.7249344535700483e-02 1.3045532091359280e-01 0.0000000000000000e+00  6.2812306715496910e-02 1.2407854065288335e-01 0.0000000000000000e+00  7.4027214187260881e-02 1.1607571150837477e-01 0.0000000000000000e+00  7.6766387070545700e-02 1.0627099034963335e-01 0.0000000000000000e+00  6.7100399027947691e-02 9.5051059538041063e-02 0.0000000000000000e+00  4.1697037135439617e-02 8.4284321366557446e-02 0.0000000000000000e+00  2.8690093582753322e-03 7.6986138132307286e-02 0.0000000000000000e+00  -4.0070075368830199e-02 7.7689126522081639e-02 0.0000000000000000e+00  -7.1082484860382503e-02 8.9173313124328968e-02 0.0000000000000000e+00  -7.8609947301426966e-02 1.0894984530484642e-01 0.0000000000000000e+00  -6.8549607426718021e-02 1.3015661217003030e-01 0.0000000000000000e+00  -5.3344942958696330e-02 1.4655565453697222e-01 0.0000000000000000e+00  -3.9885292242612599e-02 1.5730678622314431e-01 0.0000000000000000e+00  -2.9070841266898750e-02 1.6382601920689463e-01 0.0000000000000000e+00  -2.0282241415019452e-02 1.6734555467162113e-01 0.0000000000000000e+00  -1.3059677976324536e-02 1.6866436885675348e-01 0.0000000000000000e+00  -7.0571123708102817e-03 1.6830481541957226e-01 0.0000000000000000e+00  -2.1140405939120408e-03 1.6664763395548796e-01 0.0000000000000000e+00  1.9399757079241601e-03 1.6398191628203015e-01 0.0000000000000000e+00  5.2022179479001059e-03 1.6055353536978131e-01 0.0000000000000000e+00  7.7796824142739203e-03 1.5654843364836882e-01 0.0000000000000000e+00  9.7567044083580606e-03 1.5213280312637553e-01 0.0000000000000000e+00  1.1216814520018265e-02 1.4743642305141161e-01 0.0000000000000000e+00  1.2240888601617437e-02 1.4256334824017439e-01 0.0000000000000000e+00  1.2898187718809391e-02 1.3760720611581681e-01 0.0000000000000000e+00  1.3255203091690466e-02 1.3264338189470443e-01 0.0000000000000000e+00  1.3367068190956026e-02 1.2772606199623265e-01 0.0000000000000000e+00  1.3284138367676696e-02 1.2290152518884194e-01 0.0000000000000000e+00  1.3052368229048860e-02 1.1819911915339915e-01 0.0000000000000000e+00  1.2708150853366849e-02 1.1365024918577726e-01 0.0000000000000000e+00  1.2286283291475844e-02 1.0925728143196305e-01 0.0000000000000000e+00  1.1805295685506314e-02 1.0504792397691846e-01 0.0000000000000000e+00  1.1288453774062632e-02 1.0101292104216675e-01 0.0000000000000000e+00  1.0746428806301672e-02 9.7161827475139739e-02 0.0000000000000000e+00  1.0189196087237245e-02 9.3493373856961520e-02 0.0000000000000000e+00  9.6282392381587915e-03 9.0006043123404433e-02 0.0000000000000000e+00  9.0737162211585506e-03 8.6688490996638876e-02 0.0000000000000000e+00  8.5287646080023892e-03 8.3534715188732886e-02 0.0000000000000000e+00  7.9930758825852519e-03 8.0545617264379768e-02 0.0000000000000000e+00  7.4751096682165591e-03 7.7703927142762877e-02 0.0000000000000000e+00  6.9673383312728911e-03 7.5009656054805904e-02 0.0000000000000000e+00  6.4785535794182648e-03 7.2450529070420377e-02 0.0000000000000000e+00  6.0075675894412685e-03 7.0022154454999860e-02 0.0000000000000000e+00  5.5533442116291448e-03 6.7716552673302691e-02 0.0000000000000000e+00  5.1169093847305913e-03 6.5525570665406860e-02 0.0000000000000000e+00  4.6983099970270724e-03 6.3445158766020665e-02 0.0000000000000000e+00  4.2977520005990305e-03 6.1465670584347425e-02 0.0000000000000000e+00  3.9126979151077081e-03 5.9584815874771498e-02 0.0000000000000000e+00  3.5455331732469259e-03 5.7793717605880320e-02 0.0000000000000000e+00  3.1962849440148123e-03 5.6089401125540575e-02 0.0000000000000000e+00  2.8625140653091010e-03 5.4465472224545022e-02 0.0000000000000000e+00  2.5444891967391146e-03 5.2918777950375022e-02 0.0000000000000000e+00  2.2411846763974678e-03 5.1443498937567327e-02 0.0000000000000000e+00  1.9539712516455938e-03 5.0036877771102946e-02 0.0000000000000000e+00  1.6825890007656442e-03 4.8693734303962205e-02 0.0000000000000000e+00  1.4254557456603045e-03 4.7412099423343818e-02 0.0000000000000000e+00  1.1818382011196285e-03 4.6187820272653453e-02 0.0000000000000000e+00  9.5265314690082497e-04 4.5017573600352037e-02 0.0000000000000000e+00  7.3572324195860352e-04 4.3899300591747459e-02 0.0000000000000000e+00  5.3214221170443457e-04 4.2829046064093705e-02 0.0000000000000000e+00  3.4224137344168710e-04 4.1805086696200137e-02 0.0000000000000000e+00  1.6439849211114394e-04 4.0825572104880595e-02 0.0000000000000000e+00  9.0153676056462797e-04 3.9345636312818386e-02 0.0000000000000000e+00  1.7760151982912416e-03 3.8751622688634010e-02 0.0000000000000000e+00  2.6194045431314730e-03 3.8108129671105662e-02 0.0000000000000000e+00  3.4282007324074396e-03 3.7418601708276981e-02 0.0000000000000000e+00  4.2006213765379535e-03 3.6685498475694495e-02 0.0000000000000000e+00  4.9335811090679771e-03 3.5913113137185912e-02 0.0000000000000000e+00  5.6258146566340690e-03 3.5103719637368559e-02 0.0000000000000000e+00  6.2747323611822541e-03 3.4261653648803285e-02 0.0000000000000000e+00  6.8789710840114820e-03 3.3390183577577816e-02 0.0000000000000000e+00  7.4380259661689443e-03 3.2492375019894645e-02 0.0000000000000000e+00  7.9501600176018310e-03 3.1572448786296788e-02 0.0000000000000000e+00  8.4147040980013781e-03 3.0635030090368418e-02 0.0000000000000000e+00  8.8312335044331593e-03 2.9682998644383160e-02 0.0000000000000000e+00  9.1990953505027579e-03 2.8720839162766097e-02 0.0000000000000000e+00  9.5194716984205712e-03 2.7750762717711829e-02 0.0000000000000000e+00  9.7917630379044940e-03 2.6777575148897972e-02 0.0000000000000000e+00  1.0016613199630972e-02 2.5804871692310150e-02 0.0000000000000000e+00  1.0194989018174986e-02 2.4835487764120090e-02 0.0000000000000000e+00  1.0327635742492769e-02 2.3872334218115514e-02 0.0000000000000000e+00  1.0415384185252490e-02 2.2919359190886543e-02 0.0000000000000000e+00  1.0459750030221013e-02 2.1978789067889748e-02 0.0000000000000000e+00  1.0461821502676971e-02 2.1053838872057393e-02 0.0000000000000000e+00  1.0422940330566840e-02 2.0147057926465033e-02 0.0000000000000000e+00  1.0345213675514255e-02 1.9259759535709249e-02 0.0000000000000000e+00  1.0229771039932193e-02 1.8394922517005606e-02 0.0000000000000000e+00  1.0078266064944257e-02 1.7554347519183493e-02 0.0000000000000000e+00  9.8926042749403840e-03 1.6739909908345077e-02 0.0000000000000000e+00  9.6746063967444069e-03 1.5952472990390872e-02 0.0000000000000000e+00  9.4258389315844387e-03 1.5194742264873107e-02 0.0000000000000000e+00  9.1479064261056481e-03 1.4467237170084845e-02 0.0000000000000000e+00  8.8429198673967476e-03 1.3771109640597898e-02 0.0000000000000000e+00  8.5124012413573709e-03 1.3107308953846626e-02 0.0000000000000000e+00  8.1581994140756241e-03 1.2476474155768335e-02 0.0000000000000000e+00  7.7817553956688332e-03 1.1879858650700898e-02 0.0000000000000000e+00  7.3849272208792944e-03 1.1317687386114361e-02 0.0000000000000000e+00  6.9693058158501473e-03 1.0790983750188920e-02 0.0000000000000000e+00  6.5361482028747035e-03 1.0299356233619448e-02 0.0000000000000000e+00  6.0872551201009272e-03 9.8437617868677649e-03 0.0000000000000000e+00  5.6238245289363812e-03 9.4241689501444580e-03 0.0000000000000000e+00  5.1476956566971167e-03 9.0405074776519871e-03 0.0000000000000000e+00  4.6599739656979404e-03 8.6937919341932308e-03 0.0000000000000000e+00  4.1618792404980219e-03 8.3844840820537624e-03 0.0000000000000000e+00  3.6548544740997615e-03 8.1112209542248907e-03 0.0000000000000000e+00  3.1398857128814087e-03 7.8748471787935675e-03 0.0000000000000000e+00  2.6182856838041077e-03 7.6752302019222757e-03 0.0000000000000000e+00  2.0913777044408478e-03 7.5124941951401573e-03 0.0000000000000000e+00  1.5600507837136861e-03 7.3861609256654550e-03 0.0000000000000000e+00  1.0259532951527824e-03 7.2971383340906509e-03 0.0000000000000000e+00  4.8963346838593405e-04 7.2454494666534227e-03 0.0000000000000000e+00  -4.7479926613005723e-05 7.2302491647737391e-03 0.0000000000000000e+00  -5.8450077413205420e-04 7.2517158329268513e-03 0.0000000000000000e+00  -1.1203183034520663e-03 7.3104152909567611e-03 0.0000000000000000e+00  -1.6535097485910534e-03 7.4062033100254178e-03 0.0000000000000000e+00  -2.1832021942688128e-03 7.5387501434490438e-03 0.0000000000000000e+00  -2.7082264392195832e-03 7.7079126506380720e-03 0.0000000000000000e+00  -3.2277011170317592e-03 7.9138040876380322e-03 0.0000000000000000e+00  -3.7400377046987172e-03 8.1562255113878830e-03 0.0000000000000000e+00  -4.2443162903534329e-03 8.4357218431357298e-03 0.0000000000000000e+00  -4.7391098447500703e-03 8.7517736649734452e-03 0.0000000000000000e+00  -5.2231273923550939e-03 9.1046805347822588e-03 0.0000000000000000e+00  -5.6953445591662903e-03 9.4932894996920848e-03 0.0000000000000000e+00  -6.1539545970965732e-03 9.9184637154300526e-03 0.0000000000000000e+00  -6.5980848545222305e-03 1.0379474799861003e-02 0.0000000000000000e+00  -7.0259504814247607e-03 1.0876054845400988e-02 0.0000000000000000e+00  -7.4360091594269625e-03 1.1407986761332532e-02 0.0000000000000000e+00  -7.8268788865275725e-03 1.1974840513720603e-02 0.0000000000000000e+00  -8.1966832834693987e-03 1.2575792701418080e-02 0.0000000000000000e+00  -8.5444009939699278e-03 1.3209953937796596e-02 0.0000000000000000e+00  -8.8675579178603258e-03 1.3877212432211739e-02 0.0000000000000000e+00  -9.1653394321115668e-03 1.4576240981163122e-02 0.0000000000000000e+00  -9.4354616561285673e-03 1.5305915295003610e-02 0.0000000000000000e+00  -9.6761427785235429e-03 1.6066122921615054e-02 0.0000000000000000e+00  -9.8858817635167368e-03 1.6855209782098011e-02 0.0000000000000000e+00  -1.0063018735860718e-02 1.7670683700911724e-02 0.0000000000000000e+00  -1.0206031938197479e-02 1.8511809781930524e-02 0.0000000000000000e+00  -1.0312430088614957e-02 1.9376509366843101e-02 0.0000000000000000e+00  -1.0381735140993572e-02