<?xml version="1.0"?>
<VTKFile type="UnstructuredGrid"  version="0.1"  >
<UnstructuredGrid>
<Piece  NumberOfPoints="16275" NumberOfCells="32468">
<Points>
<DataArray  type="Float64"  NumberOfComponents="3"  format="ascii">-0.5 0.5 0  0.5 0.5 0  0.5 -0.5 0  -0.5 -0.5 0  -1 1 0  1 1 0  1 -1 0  -1 -1 0  -0.4900000000000277 0.5 0  -0.4800000000000555 0.5 0  -0.4700000000000832 0.5 0  -0.4600000000001109 0.5 0  -0.4500000000001387 0.5 0  -0.4400000000001664 0.5 0  -0.4300000000001942 0.5 0  -0.4200000000002219 0.5 0  -0.4100000000002497 0.5 0  -0.4000000000002774 0.5 0  -0.3900000000003052 0.5 0  -0.3800000000003328 0.5 0  -0.3700000000003606 0.5 0  -0.3600000000003883 0.5 0  -0.3500000000004161 0.5 0  -0.3400000000004438 0.5 0  -0.3300000000004716 0.5 0  -0.3200000000004993 0.5 0  -0.3100000000005271 0.5 0  -0.3000000000005548 0.5 0  -0.2900000000005825 0.5 0  -0.2800000000006103 0.5 0  -0.2700000000006381 0.5 0  -0.2600000000006658 0.5 0  -0.2500000000006935 0.5 0  -0.2400000000007212 0.5 0  -0.230000000000749 0.5 0  -0.2200000000007767 0.5 0  -0.2100000000008044 0.5 0  -0.2000000000008322 0.5 0  -0.19000000000086 0.5 0  -0.1800000000008877 0.5 0  -0.1700000000009154 0.5 0  -0.1600000000009431 0.5 0  -0.1500000000009709 0.5 0  -0.1400000000009986 0.5 0  -0.1300000000010264 0.5 0  -0.1200000000010541 0.5 0  -0.1100000000010818 0.5 0  -0.1000000000011096 0.5 0  -0.09000000000113734 0.5 0  -0.08000000000116503 0.5 0  -0.07000000000119283 0.5 0  -0.06000000000122058 0.5 0  -0.05000000000124827 0.5 0  -0.04000000000127607 0.5 0  -0.03000000000130376 0.5 0  -0.02000000000133151 0.5 0  -0.01000000000135925 0.5 0  -1.376121439022882e-12 0.5 0  0.009999999998640763 0.5 0  0.01999999999866864 0.5 0  0.02999999999869629 0.5 0  0.03999999999872406 0.5 0  0.04999999999875182 0.5 0  0.05999999999877947 0.5 0  0.06999999999880724 0.5 0  0.079999999998835 0.5 0  0.08999999999886266 0.5 0  0.09999999999889042 0.5 0  0.1099999999989182 0.5 0  0.1199999999989459 0.5 0  0.1299999999989737 0.5 0  0.1399999999990014 0.5 0  0.1499999999990291 0.5 0  0.1599999999990568 0.5 0  0.1699999999990847 0.5 0  0.1799999999991124 0.5 0  0.1899999999991401 0.5 0  0.1999999999991678 0.5 0  0.2099999999991955 0.5 0  0.2199999999992234 0.5 0  0.2299999999992511 0.5 0  0.2399999999992788 0.5 0  0.2499999999993066 0.5 0  0.2599999999993342 0.5 0  0.269999999999362 0.5 0  0.2799999999993897 0.5 0  0.2899999999994175 0.5 0  0.2999999999994452 0.5 0  0.3099999999994729 0.5 0  0.3199999999995007 0.5 0  0.3299999999995284 0.5 0  0.3399999999995562 0.5 0  0.3499999999995839 0.5 0  0.3599999999996116 0.5 0  0.3699999999996393 0.5 0  0.379999999999667 0.5 0  0.3899999999996949 0.5 0  0.3999999999997226 0.5 0  0.4099999999997503 0.5 0  0.419999999999778 0.5 0  0.4299999999998058 0.5 0  0.4399999999998336 0.5 0  0.4499999999998613 0.5 0  0.4599999999998891 0.5 0  0.4699999999999167 0.5 0  0.4799999999999445 0.5 0  0.4899999999999722 0.5 0  0.5 0.4900000000000277 0  0.5 0.4800000000000555 0  0.5 0.4700000000000832 0  0.5 0.4600000000001109 0  0.5 0.4500000000001387 0  0.5 0.4400000000001664 0  0.5 0.4300000000001942 0  0.5 0.4200000000002219 0  0.5 0.4100000000002497 0  0.5 0.4000000000002774 0  0.5 0.3900000000003052 0  0.5 0.3800000000003328 0  0.5 0.3700000000003606 0  0.5 0.3600000000003883 0  0.5 0.3500000000004161 0  0.5 0.3400000000004438 0  0.5 0.3300000000004716 0  0.5 0.3200000000004993 0  0.5 0.3100000000005271 0  0.5 0.3000000000005548 0  0.5 0.2900000000005825 0  0.5 0.2800000000006103 0  0.5 0.2700000000006381 0  0.5 0.2600000000006658 0  0.5 0.2500000000006935 0  0.5 0.2400000000007212 0  0.5 0.230000000000749 0  0.5 0.2200000000007767 0  0.5 0.2100000000008044 0  0.5 0.2000000000008322 0  0.5 0.19000000000086 0  0.5 0.1800000000008877 0  0.5 0.1700000000009154 0  0.5 0.1600000000009431 0  0.5 0.1500000000009709 0  0.5 0.1400000000009986 0  0.5 0.1300000000010264 0  0.5 0.1200000000010541 0  0.5 0.1100000000010818 0  0.5 0.1000000000011096 0  0.5 0.09000000000113734 0  0.5 0.08000000000116503 0  0.5 0.07000000000119283 0  0.5 0.06000000000122058 0  0.5 0.05000000000124827 0  0.5 0.04000000000127607 0  0.5 0.03000000000130376 0  0.5 0.02000000000133151 0  0.5 0.01000000000135925 0  0.5 1.376121439022882e-12 0  0.5 -0.009999999998640763 0  0.5 -0.01999999999866864 0  0.5 -0.02999999999869629 0  0.5 -0.03999999999872406 0  0.5 -0.04999999999875182 0  0.5 -0.05999999999877947 0  0.5 -0.06999999999880724 0  0.5 -0.079999999998835 0  0.5 -0.08999999999886266 0  0.5 -0.09999999999889042 0  0.5 -0.1099999999989182 0  0.5 -0.1199999999989459 0  0.5 -0.1299999999989737 0  0.5 -0.1399999999990014 0  0.5 -0.1499999999990291 0  0.5 -0.1599999999990568 0  0.5 -0.1699999999990847 0  0.5 -0.1799999999991124 0  0.5 -0.1899999999991401 0  0.5 -0.1999999999991678 0  0.5 -0.2099999999991955 0  0.5 -0.2199999999992234 0  0.5 -0.2299999999992511 0  0.5 -0.2399999999992788 0  0.5 -0.2499999999993066 0  0.5 -0.2599999999993342 0  0.5 -0.269999999999362 0  0.5 -0.2799999999993897 0  0.5 -0.2899999999994175 0  0.5 -0.2999999999994452 0  0.5 -0.3099999999994729 0  0.5 -0.3199999999995007 0  0.5 -0.3299999999995284 0  0.5 -0.3399999999995562 0  0.5 -0.3499999999995839 0  0.5 -0.3599999999996116 0  0.5 -0.3699999999996393 0  0.5 -0.379999999999667 0  0.5 -0.3899999999996949 0  0.5 -0.3999999999997226 0  0.5 -0.4099999999997503 0  0.5 -0.419999999999778 0  0.5 -0.4299999999998058 0  0.5 -0.4399999999998336 0  0.5 -0.4499999999998613 0  0.5 -0.4599999999998891 0  0.5 -0.4699999999999167 0  0.5 -0.4799999999999445 0  0.5 -0.4899999999999722 0  0.4900000000000277 -0.5 0  0.4800000000000555 -0.5 0  0.4700000000000832 -0.5 0  0.4600000000001109 -0.5 0  0.4500000000001387 -0.5 0  0.4400000000001664 -0.5 0  0.4300000000001942 -0.5 0  0.4200000000002219 -0.5 0  0.4100000000002497 -0.5 0  0.4000000000002774 -0.5 0  0.3900000000003052 -0.5 0  0.3800000000003328 -0.5 0  0.3700000000003606 -0.5 0  0.3600000000003883 -0.5 0  0.3500000000004161 -0.5 0  0.3400000000004438 -0.5 0  0.3300000000004716 -0.5 0  0.3200000000004993 -0.5 0  0.3100000000005271 -0.5 0  0.3000000000005548 -0.5 0  0.2900000000005825 -0.5 0  0.2800000000006103 -0.5 0  0.2700000000006381 -0.5 0  0.2600000000006658 -0.5 0  0.2500000000006935 -0.5 0  0.2400000000007212 -0.5 0  0.230000000000749 -0.5 0  0.2200000000007767 -0.5 0  0.2100000000008044 -0.5 0  0.2000000000008322 -0.5 0  0.19000000000086 -0.5 0  0.1800000000008877 -0.5 0  0.1700000000009154 -0.5 0  0.1600000000009431 -0.5 0  0.1500000000009709 -0.5 0  0.1400000000009986 -0.5 0  0.1300000000010264 -0.5 0  0.1200000000010541 -0.5 0  0.1100000000010818 -0.5 0  0.1000000000011096 -0.5 0  0.09000000000113734 -0.5 0  0.08000000000116503 -0.5 0  0.07000000000119283 -0.5 0  0.06000000000122058 -0.5 0  0.05000000000124827 -0.5 0  0.04000000000127607 -0.5 0  0.03000000000130376 -0.5 0  0.02000000000133151 -0.5 0  0.01000000000135925 -0.5 0  1.376121439022882e-12 -0.5 0  -0.009999999998640763 -0.5 0  -0.01999999999866864 -0.5 0  -0.02999999999869629 -0.5 0  -0.03999999999872406 -0.5 0  -0.04999999999875182 -0.5 0  -0.05999999999877947 -0.5 0  -0.06999999999880724 -0.5 0  -0.079999999998835 -0.5 0  -0.08999999999886266 -0.5 0  -0.09999999999889042 -0.5 0  -0.1099999999989182 -0.5 0  -0.1199999999989459 -0.5 0  -0.1299999999989737 -0.5 0  -0.1399999999990014 -0.5 0  -0.1499999999990291 -0.5 0  -0.1599999999990568 -0.5 0  -0.1699999999990847 -0.5 0  -0.1799999999991124 -0.5 0  -0.1899999999991401 -0.5 0  -0.1999999999991678 -0.5 0  -0.2099999999991955 -0.5 0  -0.2199999999992234 -0.5 0  -0.2299999999992511 -0.5 0  -0.2399999999992788 -0.5 0  -0.2499999999993066 -0.5 0  -0.2599999999993342 -0.5 0  -0.269999999999362 -0.5 0  -0.2799999999993897 -0.5 0  -0.2899999999994175 -0.5 0  -0.2999999999994452 -0.5 0  -0.3099999999994729 -0.5 0  -0.3199999999995007 -0.5 0  -0.3299999999995284 -0.5 0  -0.3399999999995562 -0.5 0  -0.3499999999995839 -0.5 0  -0.3599999999996116 -0.5 0  -0.3699999999996393 -0.5 0  -0.379999999999667 -0.5 0  -0.3899999999996949 -0.5 0  -0.3999999999997226 -0.5 0  -0.4099999999997503 -0.5 0  -0.419999999999778 -0.5 0  -0.4299999999998058 -0.5 0  -0.4399999999998336 -0.5 0  -0.4499999999998613 -0.5 0  -0.4599999999998891 -0.5 0  -0.4699999999999167 -0.5 0  -0.4799999999999445 -0.5 0  -0.4899999999999722 -0.5 0  -0.5 -0.4900000000000277 0  -0.5 -0.4800000000000555 0  -0.5 -0.4700000000000832 0  -0.5 -0.4600000000001109 0  -0.5 -0.4500000000001387 0  -0.5 -0.4400000000001664 0  -0.5 -0.4300000000001942 0  -0.5 -0.4200000000002219 0  -0.5 -0.4100000000002497 0  -0.5 -0.4000000000002774 0  -0.5 -0.3900000000003052 0  -0.5 -0.3800000000003328 0  -0.5 -0.3700000000003606 0  -0.5 -0.3600000000003883 0  -0.5 -0.3500000000004161 0  -0.5 -0.3400000000004438 0  -0.5 -0.3300000000004716 0  -0.5 -0.3200000000004993 0  -0.5 -0.3100000000005271 0  -0.5 -0.3000000000005548 0  -0.5 -0.2900000000005825 0  -0.5 -0.2800000000006103 0  -0.5 -0.2700000000006381 0  -0.5 -0.2600000000006658 0  -0.5 -0.2500000000006935 0  -0.5 -0.2400000000007212 0  -0.5 -0.230000000000749 0  -0.5 -0.2200000000007767 0  -0.5 -0.2100000000008044 0  -0.5 -0.2000000000008322 0  -0.5 -0.19000000000086 0  -0.5 -0.1800000000008877 0  -0.5 -0.1700000000009154 0  -0.5 -0.1600000000009431 0  -0.5 -0.1500000000009709 0  -0.5 -0.1400000000009986 0  -0.5 -0.1300000000010264 0  -0.5 -0.1200000000010541 0  -0.5 -0.1100000000010818 0  -0.5 -0.1000000000011096 0  -0.5 -0.09000000000113734 0  -0.5 -0.08000000000116503 0  -0.5 -0.07000000000119283 0  -0.5 -0.06000000000122058 0  -0.5 -0.05000000000124827 0  -0.5 -0.04000000000127607 0  -0.5 -0.03000000000130376 0  -0.5 -0.02000000000133151 0  -0.5 -0.01000000000135925 0  -0.5 -1.376121439022882e-12 0  -0.5 0.009999999998640763 0  -0.5 0.01999999999866864 0  -0.5 0.02999999999869629 0  -0.5 0.03999999999872406 0  -0.5 0.04999999999875182 0  -0.5 0.05999999999877947 0  -0.5 0.06999999999880724 0  -0.5 0.079999999998835 0  -0.5 0.08999999999886266 0  -0.5 0.09999999999889042
[...]
<PointData  Vectors="f_27-0"> 
<DataArray  type="Float64"  Name="f_27-0"  NumberOfComponents="3" format="ascii">5.7391732241457677e-04 4.3464409463795185e-02 0.0000000000000000e+00  -8.6821398702036914e-04 4.3436017356611879e-02 0.0000000000000000e+00  4.2329665669063680e-04 4.1754806916850858e-02 0.0000000000000000e+00  -2.0920334016279692e-04 4.1732894889062164e-02 0.0000000000000000e+00  -1.7524462526863460e-03 6.8051508548796942e-03 0.0000000000000000e+00  1.8589865257206840e-03 6.6375508362201815e-03 0.0000000000000000e+00  -1.6255578635620519e-03 6.8393381336827822e-03 0.0000000000000000e+00  1.7712863557195523e-03 6.6202439329984611e-03 0.0000000000000000e+00  1.6195165546984800e-03 4.2848565027090064e-02 0.0000000000000000e+00  2.6266531505147544e-03 4.2171107919651812e-02 0.0000000000000000e+00  3.5980442598032725e-03 4.1434952715781848e-02 0.0000000000000000e+00  4.5297853339464258e-03 4.0644373809356690e-02 0.0000000000000000e+00  5.4150072318688335e-03 3.9801889862203038e-02 0.0000000000000000e+00  6.2551110597749513e-03 3.8912818871021819e-02 0.0000000000000000e+00  7.0444641176048671e-03 3.7979622524328918e-02 0.0000000000000000e+00  7.7831197927853025e-03 3.7008091927353784e-02 0.0000000000000000e+00  8.4672498249843981e-03 3.6003858227613296e-02 0.0000000000000000e+00  9.0957923185387927e-03 3.4968628333598928e-02 0.0000000000000000e+00  9.6701319318727892e-03 3.3910523699095002e-02 0.0000000000000000e+00  1.0186389229478432e-02 3.2832255664073773e-02 0.0000000000000000e+00  1.0645631575534524e-02 3.1738073098233600e-02 0.0000000000000000e+00  1.1048125858330123e-02 3.0632489404854430e-02 0.0000000000000000e+00  1.1392423801411483e-02 2.9522565628052114e-02 0.0000000000000000e+00  1.1681420529821157e-02 2.8410896766418198e-02 0.0000000000000000e+00  1.1914644793761723e-02 2.7299722854080496e-02 0.0000000000000000e+00  1.2092953695972705e-02 2.6196053771739204e-02 0.0000000000000000e+00  1.2218637064629985e-02 2.5102805374435582e-02 0.0000000000000000e+00  1.2292624726542283e-02 2.4022865722495210e-02 0.0000000000000000e+00  1.2316598177008500e-02 2.2959659097988229e-02 0.0000000000000000e+00  1.2292436182564344e-02 2.1915844225865649e-02 0.0000000000000000e+00  1.2222823960501431e-02 2.0894506884968501e-02 0.0000000000000000e+00  1.2108238806683096e-02 1.9898786680675185e-02 0.0000000000000000e+00  1.1951236764584152e-02 1.8929655214948413e-02 0.0000000000000000e+00  1.1756006624679941e-02 1.7990530826852424e-02 0.0000000000000000e+00  1.1520990067563014e-02 1.7082861499893062e-02 0.0000000000000000e+00  1.1251825793390225e-02 1.6208524259981521e-02 0.0000000000000000e+00  1.0948393590767415e-02 1.5366362385187737e-02 0.0000000000000000e+00  1.0614453707351694e-02 1.4560885709392816e-02 0.0000000000000000e+00  1.0249986632657609e-02 1.3790337377728154e-02 0.0000000000000000e+00  9.8597040049630113e-03 1.3057166759008363e-02 0.0000000000000000e+00  9.4433807046290941e-03 1.2363074960275507e-02 0.0000000000000000e+00  9.0043619515138250e-03 1.1707394865192877e-02 0.0000000000000000e+00  8.5436142450550784e-03 1.1090078781959957e-02 0.0000000000000000e+00  8.0623813171965212e-03 1.0509028752546053e-02 0.0000000000000000e+00  7.5652065215953456e-03 9.9712094320322381e-03 0.0000000000000000e+00  7.0486586556739051e-03 9.4719182638885006e-03 0.0000000000000000e+00  6.5203608319731815e-03 9.0111124421576351e-03 0.0000000000000000e+00  5.9760876437952529e-03 8.5923076020221253e-03 0.0000000000000000e+00  5.4226066746924841e-03 8.2118580141184623e-03 0.0000000000000000e+00  4.8574996794784287e-03 7.8714409117663642e-03 0.0000000000000000e+00  4.2827181163361833e-03 7.5710015166997290e-03 0.0000000000000000e+00  3.7008869120620587e-03 7.3091858383335798e-03 0.0000000000000000e+00  3.1115892872819388e-03 7.0886191526446434e-03 0.0000000000000000e+00  2.5163383392568868e-03 6.9054848339622204e-03 0.0000000000000000e+00  1.9175318205629035e-03 6.7633691542715634e-03 0.0000000000000000e+00  1.3144504234619391e-03 6.6594077425901014e-03 0.0000000000000000e+00  7.1170611412422807e-04 6.5946625181780762e-03 0.0000000000000000e+00  1.0423821965001255e-04 6.5714244650361305e-03 0.0000000000000000e+00  -5.0212470130378268e-04 6.5855823057368885e-03 0.0000000000000000e+00  -1.1068496133101204e-03 6.6392284614998926e-03 0.0000000000000000e+00  -1.7101510590305112e-03 6.7313642651419796e-03 0.0000000000000000e+00  -2.3103970641596408e-03 6.8639477946485956e-03 0.0000000000000000e+00  -2.9068205106587185e-03 7.0358774088224458e-03 0.0000000000000000e+00  -3.4971076201103777e-03 7.2470810347860671e-03 0.0000000000000000e+00  -4.0821941290801588e-03 7.4975682808855696e-03 0.0000000000000000e+00  -4.6582877456225929e-03 7.7881415865491601e-03 0.0000000000000000e+00  -5.2269477667865119e-03 8.1190619743110731e-03 0.0000000000000000e+00  -5.7859629976721736e-03 8.4887734363390741e-03 0.0000000000000000e+00  -6.3324150057581310e-03 8.8983588279072604e-03 0.0000000000000000e+00  -6.8671570460516560e-03 9.3481641764847669e-03 0.0000000000000000e+00  -7.3873794772406891e-03 9.8362392560464359e-03 0.0000000000000000e+00  -7.8912425668816941e-03 1.0364847288980407e-02 0.0000000000000000e+00  -8.3785103205898277e-03 1.0933543977211649e-02 0.0000000000000000e+00  -8.8459026537111244e-03 1.1540215063862498e-02 0.0000000000000000e+00  -9.2934604991609330e-03 1.2186390124233294e-02 0.0000000000000000e+00  -9.7171500191658659e-03 1.2871790733476966e-02 0.0000000000000000e+00  -1.0117865126930659e-02 1.3594372316981837e-02 0.0000000000000000e+00  -1.0490929914752169e-02 1.4355013995938186e-02 0.0000000000000000e+00  -1.0834668735795961e-02 1.5153348958265882e-02 0.0000000000000000e+00  -1.1150145862232366e-02 1.5985658261278044e-02 0.0000000000000000e+00  -1.1430946100037491e-02 1.6851466182020311e-02 0.0000000000000000e+00  -1.1679272789358340e-02 1.7751382920797636e-02 0.0000000000000000e+00  -1.1886879383348991e-02 1.8684206625607658e-02 0.0000000000000000e+00  -1.2060074408755670e-02 1.9647519127725017e-02 0.0000000000000000e+00  -1.2188509517104210e-02 2.0638811397263826e-02 0.0000000000000000e+00  -1.2275161908903796e-02 2.1653771933928721e-02 0.0000000000000000e+00  -1.2314962819636783e-02 2.2695129523483314e-02 0.0000000000000000e+00  -1.2308052154222539e-02 2.3756040361210973e-02 0.0000000000000000e+00  -1.2251755747347715e-02 2.4835643537251859e-02 0.0000000000000000e+00  -1.2143980110506459e-02 2.5928239999046788e-02 0.0000000000000000e+00  -1.1983622783820338e-02 2.7033211231514573e-02 0.0000000000000000e+00  -1.1768354884619619e-02 2.8147238682348849e-02 0.0000000000000000e+00  -1.1498492901412378e-02 2.9263271355786668e-02 0.0000000000000000e+00  -1.1172170008639421e-02 3.0379476006250405e-02 0.0000000000000000e+00  -1.0788171249692762e-02 3.1491549526971023e-02 0.0000000000000000e+00  -1.0346814327934514e-02 3.2594186504982442e-02 0.0000000000000000e+00  -9.8476324963609682e-03 3.3683561355521419e-02 0.0000000000000000e+00  -9.2916561390140734e-03 3.4753657912502046e-02 0.0000000000000000e+00  -8.6779608265291769e-03 3.5801242639903336e-02 0.0000000000000000e+00  -8.0079782636425460e-03 3.6821209897032331e-02 0.0000000000000000e+00  -7.2837528363966153e-03 3.7808061472404224e-02 0.0000000000000000e+00  -6.5066579057582790e-03 3.8758762515539162e-02 0.0000000000000000e+00  -5.6786088358423050e-03 3.9668508521269623e-02 0.0000000000000000e+00  -4.8034787571623666e-03 4.0529970358765245e-02 0.0000000000000000e+00  -3.8793573151946368e-03 4.1342177025767445e-02 0.0000000000000000e+00  -2.9145562248422776e-03 4.2098502499349835e-02 0.0000000000000000e+00  -1.9113901018845483e-03 4.2797215042326524e-02 0.0000000000000000e+00  -1.0939027907486236e-03 4.4520889861917268e-02 0.0000000000000000e+00  -1.3335011361035795e-03 4.5650650770260558e-02 0.0000000000000000e+00  -1.5890242003755270e-03 4.6839914586582682e-02 0.0000000000000000e+00  -1.8593857361635876e-03 4.8084649789851483e-02 0.0000000000000000e+00  -2.1474734893988687e-03 4.9392203285383796e-02 0.0000000000000000e+00  -2.4614394873824015e-03 5.0769082955992272e-02 0.0000000000000000e+00  -2.7834313878858929e-03 5.2207177883306193e-02 0.0000000000000000e+00  -3.1302346306668750e-03 5.3727706505033911e-02 0.0000000000000000e+00  -3.4989858316391937e-03 5.5320923042032420e-02 0.0000000000000000e+00  -3.8855921475087333e-03 5.7001526496678390e-02 0.0000000000000000e+00  -4.2986380271288283e-03 5.8773775265397822e-02 0.0000000000000000e+00  -4.7379531725137347e-03 6.0638258952976275e-02 0.0000000000000000e+00  -5.2026160500659177e-03 6.2609587579192022e-02 0.0000000000000000e+00  -5.6931854224655260e-03 6.4684031605937123e-02 0.0000000000000000e+00  -6.2130147671177298e-03 6.6879026644463241e-02 0.0000000000000000e+00  -6.7672996064362416e-03 6.9201187410750292e-02 0.0000000000000000e+00  -7.3590717156257106e-03 7.1651840024608185e-02 0.0000000000000000e+00  -7.9812917574279153e-03 7.4248606740235437e-02 0.0000000000000000e+00  -8.6360851016554739e-03 7.6995691859431878e-02 0.0000000000000000e+00  -9.3371829458586374e-03 7.9900362680383835e-02 0.0000000000000000e+00  -1.0084350428896794e-02 8.2978461455969141e-02 0.0000000000000000e+00  -1.0876715667768782e-02 8.6232606161547931e-02 0.0000000000000000e+00  -1.1723340495178283e-02 8.9677611060023699e-02 0.0000000000000000e+00  -1.2608548046329895e-02 9.3307290017648883e-02 0.0000000000000000e+00  -1.3525218337802306e-02 9.7153473546733163e-02 0.0000000000000000e+00  -1.4489502946392495e-02 1.0117920091842150e-01 0.0000000000000000e+00  -1.5480062706737989e-02 1.0542990589592428e-01 0.0000000000000000e+00  -1.6444272760715879e-02 1.0984107223800532e-01 0.0000000000000000e+00  -1.7394039900382303e-02 1.1444100636681286e-01 0.0000000000000000e+00  -1.8267039294090941e-02 1.1917587345851595e-01 0.0000000000000000e+00  -1.8971921541615380e-02 1.2400978214614473e-01 0.0000000000000000e+00  -1.9362850533373832e-02 1.2885515074842493e-01 0.0000000000000000e+00  -1.9359516965449079e-02 1.3366472902080243e-01 0.0000000000000000e+00  -1.8757746777382862e-02 1.3826984480783433e-01 0.0000000000000000e+00  -1.7290026040288623e-02 1.4253281061549980e-01 0.0000000000000000e+00  -1.4701893956376551e-02 1.4623459152480991e-01 0.0000000000000000e+00  -1.0652343875159089e-02 1.4909834879789113e-01 0.0000000000000000e+00  -4.7454578540021726e-03 1.5083574647098466e-01 0.0000000000000000e+00  3.4235621983618732e-03 1.5097313808981511e-01 0.0000000000000000e+00  1.4194130213864974e-02 1.4913579885642905e-01 0.0000000000000000e+00  2.7710421430774654e-02 1.4465995886947611e-01 0.0000000000000000e+00  4.3905153026775563e-02 1.3713554809584941e-01 0.0000000000000000e+00  6.1566345301974516e-02 1.2604747554787837e-01 0.0000000000000000e+00  7.8241239822967920e-02 1.1129504247761375e-01 0.0000000000000000e+00  8.9147284704386279e-02 9.3378996039783890e-02 0.0000000000000000e+00  8.7205236965874455e-02 7.3500837411831568e-02 0.0000000000000000e+00  6.4588368063868321e-02 5.4511916005538119e-02 0.0000000000000000e+00  1.9452934866988875e-02 3.9680226144477367e-02 0.0000000000000000e+00  -3.9106289080731951e-02 3.6695619299319943e-02 0.0000000000000000e+00  -8.4894547127618680e-02 5.0943435245845672e-02 0.0000000000000000e+00  -9.6502406729296497e-02 7.7953590927254041e-02 0.0000000000000000e+00  -8.3254907554044050e-02 1.0682089996946345e-01 0.0000000000000000e+00  -6.3279716747006123e-02 1.2848396323686456e-01 0.0000000000000000e+00  -4.5399052933933322e-02 1.4299596264451911e-01 0.0000000000000000e+00  -3.0844634641298972e-02 1.5211842974676479e-01 0.0000000000000000e+00  -1.9071279284677323e-02 1.5746263393211268e-01 0.0000000000000000e+00  -9.6310140620115021e-03 1.5985551184336036e-01 0.0000000000000000e+00  -2.1754361403392678e-03 1.6013442892204061e-01 0.0000000000000000e+00  3.6094543826266068e-03 1.5873514009797210e-01 0.0000000000000000e+00  8.0182133511138617e-03 1.5616833277723266e-01 0.0000000000000000e+00  1.1246817182315783e-02 1.5269647461772801e-01 0.0000000000000000e+00  1.3538891963945277e-02 1.4859216793824356e-01 0.0000000000000000e+00  1.5034442175091697e-02 1.4406718671180657e-01 0.0000000000000000e+00  1.5913273290182574e-02 1.3927487466534388e-01 0.0000000000000000e+00  1.6299026310697753e-02 1.3434152725073642e-01 0.0000000000000000e+00  1.6321999606650664e-02 1.2937350435958125e-01 0.0000000000000000e+00  1.6062697950544713e-02 1.2444376944384418e-01 0.0000000000000000e+00  1.5622683248203907e-02 1.1959111712630204e-01 0.0000000000000000e+00  1.5029842010424467e-02 1.1488796428502256e-01 0.0000000000000000e+00  1.4368881665513552e-02 1.1032779819696444e-01 0.0000000000000000e+00  1.3650551800894728e-02 1.0595694342087675e-01 0.0000000000000000e+00  1.2921164440282603e-02 1.0176304634230925e-01 0.0000000000000000e+00  1.2169369298456353e-02 9.7794003704227042e-02 0.0000000000000000e+00  1.1446690317393066e-02 9.3987403776934680e-02 0.0000000000000000e+00  1.0721397356341996e-02 9.0387603886287804e-02 0.0000000000000000e+00  1.0020533644944521e-02 8.6972148019194853e-02 0.0000000000000000e+00  9.3646645317755212e-03 8.3733920554100158e-02 0.0000000000000000e+00  8.7244394624170565e-03 8.0671233932972541e-02 0.0000000000000000e+00  8.1094667810723154e-03 7.7767447528886813e-02 0.0000000000000000e+00  7.5246327900400263e-03 7.5023025145074321e-02 0.0000000000000000e+00  6.9688373429024810e-03 7.2421214030604752e-02 0.0000000000000000e+00  6.4374125398678830e-03 6.9958967593389251e-02 0.0000000000000000e+00  5.9305179214201179e-03 6.7627677455301516e-02 0.0000000000000000e+00  5.4574864349693801e-03 6.5412360508410705e-02 0.0000000000000000e+00  4.9981644050392654e-03 6.3319829059432522e-02 0.0000000000000000e+00  4.5610776298934050e-03 6.1328832422249395e-02 0.0000000000000000e+00  4.1488566188118657e-03 5.9440140979869542e-02 0.0000000000000000e+00  3.7584141739099787e-03 5.7645927400899195e-02 0.0000000000000000e+00  3.3892807735913027e-03 5.5939718412492845e-02 0.0000000000000000e+00  3.0350877067884178e-03 5.4320721767346265e-02 0.0000000000000000e+00  2.6984121164672051e-03 5.2776909287692783e-02 0.0000000000000000e+00  2.3816577478827979e-03 5.1307591780931444e-02 0.0000000000000000e+00  2.0849180348456947e-03 4.9908617291683270e-02 0.0000000000000000e+00  1.8035672269561252e-03 4.8573819689903375e-02 0.0000000000000000e+00  1.5377857908323565e-03 4.7304182248777006e-02 0.0000000000000000e+00  1.2861327474587561e-03 4.6091824197760659e-02 0.0000000000000000e+00  1.0500299346206915e-03 4.4931563119220960e-02 0.0000000000000000e+00  8.2635517110076504e-04 4.3826056196942104e-02 0.0000000000000000e+00  6.1787249539900252e-04 4.2769169609886998e-02 0.0000000000000000e+00  1.4005967067365109e-03 4.1166964120100388e-02 0.0000000000000000e+00  2.3409123571427972e-03 4.0519683262475112e-02 0.0000000000000000e+00  3.2454355054751419e-03 3.9818850906793178e-02 0.0000000000000000e+00  4.1134177334274285e-03 3.9069441831399661e-02 0.0000000000000000e+00  4.9382285456604303e-03 3.8271648221734705e-02 0.0000000000000000e+00  5.7210247565532999e-03 3.7432697761360205e-02 0.0000000000000000e+00  6.4558210498058786e-03 3.6550311154997961e-02 0.0000000000000000e+00  7.1463546252923463e-03 3.5633818964100401e-02 0.0000000000000000e+00  7.7837242285661301e-03 3.4689068990891254e-02 0.0000000000000000e+00  8.3719054901670725e-03 3.3712835130579641e-02 0.0000000000000000e+00  8.9084596222710009e-03 3.2717142363037903e-02 0.0000000000000000e+00  9.3931402926509013e-03 3.1703719235582795e-02 0.0000000000000000e+00  9.8231268863586563e-03 3.0674496071357242e-02 0.0000000000000000e+00  1.0201551544694803e-02 2.9635540811454471e-02 0.0000000000000000e+00  1.0526544590605027e-02 2.8589539003859025e-02 0.0000000000000000e+00  1.0800216551608536e-02 2.7544836547704937e-02 0.0000000000000000e+00  1.1020510820844492e-02 2.6498560134516260e-02 0.0000000000000000e+00  1.1191957955250253e-02 2.5458478332172810e-02 0.0000000000000000e+00  1.1313431062190519e-02 2.4427156770345633e-02 0.0000000000000000e+00  1.1386984001686697e-02 2.3409278021714205e-02 0.0000000000000000e+00  1.1414272888156562e-02 2.2405791395444200e-02 0.0000000000000000e+00  1.1395400027291204e-02 2.1420086491857265e-02 0.0000000000000000e+00  1.1334693301890826e-02 2.0456935560467304e-02 0.0000000000000000e+00  1.1231433152250543e-02 1.9513917468674351e-02 0.0000000000000000e+00  1.1088399726165521e-02 1.8597324877269724e-02 0.0000000000000000e+00  1.0908585161764786e-02 1.7708029013427044e-02 0.0000000000000000e+00  1.0692080554720089e-02 1.6848899065410740e-02 0.0000000000000000e+00  1.0442692595796032e-02 1.6019024985291622e-02 0.0000000000000000e+00  1.0159602226026437e-02 1.5221144764179968e-02 0.0000000000000000e+00  9.8487539334619120e-03 1.4457726992238499e-02 0.0000000000000000e+00  9.5078581840380254e-03 1.3725570803815992e-02 0.0000000000000000e+00  9.1430423366627780e-03 1.3029777369050486e-02 0.0000000000000000e+00  8.7526174023179817e-03 1.2369239597252498e-02 0.0000000000000000e+00  8.3401559908014514e-03 1.1746101634656253e-02 0.0000000000000000e+00  7.9068100205940840e-03 1.1158746864213550e-02 0.0000000000000000e+00  7.4538378658755480e-03 1.0607393363377376e-02 0.0000000000000000e+00  6.9851866745766801e-03 1.0096950979878581e-02 0.0000000000000000e+00  6.4973050365758137e-03 9.6224245820992239e-03 0.0000000000000000e+00  5.9991429767009127e-03 9.1861094328679650e-03 0.0000000000000000e+00  5.4842250449381597e-03 8.7891303644170634e-03 0.0000000000000000e+00  4.9610372454744357e-03 8.4293158661731624e-03 0.0000000000000000e+00  4.4259290729070479e-03 8.1099046167467069e-03 0.0000000000000000e+00  3.8823108662197170e-03 7.8268561595377182e-03 0.0000000000000000e+00  3.3311143425251359e-03 7.5820250874663753e-03 0.0000000000000000e+00  2.7728320414627636e-03 7.3771738898352757e-03 0.0000000000000000e+00  2.2091847029593256e-03 7.2080963765226505e-03 0.0000000000000000e+00  1.6420882550455870e-03 7.0783830068794551e-03 0.0000000000000000e+00  1.0704308005827559e-03 6.9851413976926681e-03 0.0000000000000000e+00  5.0038657811027538e-04 6.9319274027991977e-03 0.0000000000000000e+00  -7.4451461167685483e-05 6.9192520290073918e-03 0.0000000000000000e+00  -6.4802292642697924e-04 6.9411563720497031e-03 0.0000000000000000e+00  -1.2196568934537948e-03 7.0029589025612151e-03 0.0000000000000000e+00  -1.7890268814120390e-03 7.1026867618166570e-03 0.0000000000000000e+00  -2.3549042607920391e-03 7.2412093859095987e-03 0.0000000000000000e+00  -2.9163888440198599e-03 7.4170960222288583e-03 0.0000000000000000e+00  -3.4714260172898060e-03 7.6314211185126166e-03 0.0000000000000000e+00  -4.0210358367365083e-03 7.8828569259630846e-03 0.0000000000000000e+00  -4.5608442632324806e-03 8.1741159262993402e-03 0.0000000000000000e+00  -5.0926206328738956e-03 8.5044519620400948e-03 0.0000000000000000e+00  -5.6138456775988461e-03 8.8728428165715748e-03 0.0000000000000000e+00  -6.1223208110491208e-03 9.2773329325182528e-03 0.0000000000000000e+00  -6.6176867259253817e-03 9.7218438592726227e-03 0.0000000000000000e+00  -7.0988098994288745e-03 1.0202115414757976e-02 0.0000000000000000e+00  -7.5627209137622952e-03 1.0721573288367557e-02 0.0000000000000000e+00  -8.0092692066782763e-03 1.1279781674969238e-02 0.0000000000000000e+00  -8.4362354017378117e-03 1.1873958544391175e-02 0.0000000000000000e+00  -8.8410100282635060e-03 1.2503845292505249e-02 0.0000000000000000e+00  -9.2235067292532943e-03 1.3170638528582987e-02 0.0000000000000000e+00  -9.5811804934824163e-03 1.3872470973524644e-02 0.0000000000000000e+00  -9.9127417372604117e-03 1.4608478345294917e-02 0.0000000000000000e+00  -1.0214351748120782e-02 1.5378736848756533e-02 0.0000000000000000e+00  -1.0487269482220644e-02 1.6181930627644617e-02 0.0000000000000000e+00  -1.0726304678471521e-02 1.7015901419978316e-02 0.0000000000000000e+00  -1.0933255536859686e-02 1.7877821169251896e-02 0.0000000000000000e+00  -1.1100225410020342e-02 1.8770679234476083e-02 0.0000000000000000e+00  -1.1233484856855516e-02 1.9692031164529909e-02 0.0000000000000000e+00  -1.1324611759759438e