<?xml version="1.0"?>
<VTKFile type="UnstructuredGrid"  version="0.1"  >
<UnstructuredGrid>
<Piece  NumberOfPoints="16275" NumberOfCells="32468">
<Points>
<DataArray  type="Float64"  NumberOfComponents="3"  format="ascii">-0.5 0.5 0  0.5 0.5 0  0.5 -0.5 0  -0.5 -0.5 0  -1 1 0  1 1 0  1 -1 0  -1 -1 0  -0.4900000000000277 0.5 0  -0.4800000000000555 0.5 0  -0.4700000000000832 0.5 0  -0.4600000000001109 0.5 0  -0.4500000000001387 0.5 0  -0.4400000000001664 0.5 0  -0.4300000000001942 0.5 0  -0.4200000000002219 0.5 0  -0.4100000000002497 0.5 0  -0.4000000000002774 0.5 0  -0.3900000000003052 0.5 0  -0.3800000000003328 0.5 0  -0.3700000000003606 0.5 0  -0.3600000000003883 0.5 0  -0.3500000000004161 0.5 0  -0.3400000000004438 0.5 0  -0.3300000000004716 0.5 0  -0.3200000000004993 0.5 0  -0.3100000000005271 0.5 0  -0.3000000000005548 0.5 0  -0.2900000000005825 0.5 0  -0.2800000000006103 0.5 0  -0.2700000000006381 0.5 0  -0.2600000000006658 0.5 0  -0.2500000000006935 0.5 0  -0.2400000000007212 0.5 0  -0.230000000000749 0.5 0  -0.2200000000007767 0.5 0  -0.2100000000008044 0.5 0  -0.2000000000008322 0.5 0  -0.19000000000086 0.5 0  -0.1800000000008877 0.5 0  -0.1700000000009154 0.5 0  -0.1600000000009431 0.5 0  -0.1500000000009709 0.5 0  -0.1400000000009986 0.5 0  -0.1300000000010264 0.5 0  -0.1200000000010541 0.5 0  -0.1100000000010818 0.5 0  -0.1000000000011096 0.5 0  -0.09000000000113734 0.5 0  -0.08000000000116503 0.5 0  -0.07000000000119283 0.5 0  -0.06000000000122058 0.5 0  -0.05000000000124827 0.5 0  -0.04000000000127607 0.5 0  -0.03000000000130376 0.5 0  -0.02000000000133151 0.5 0  -0.01000000000135925 0.5 0  -1.376121439022882e-12 0.5 0  0.009999999998640763 0.5 0  0.01999999999866864 0.5 0  0.02999999999869629 0.5 0  0.03999999999872406 0.5 0  0.04999999999875182 0.5 0  0.05999999999877947 0.5 0  0.06999999999880724 0.5 0  0.079999999998835 0.5 0  0.08999999999886266 0.5 0  0.09999999999889042 0.5 0  0.1099999999989182 0.5 0  0.1199999999989459 0.5 0  0.1299999999989737 0.5 0  0.1399999999990014 0.5 0  0.1499999999990291 0.5 0  0.1599999999990568 0.5 0  0.1699999999990847 0.5 0  0.1799999999991124 0.5 0  0.1899999999991401 0.5 0  0.1999999999991678 0.5 0  0.2099999999991955 0.5 0  0.2199999999992234 0.5 0  0.2299999999992511 0.5 0  0.2399999999992788 0.5 0  0.2499999999993066 0.5 0  0.2599999999993342 0.5 0  0.269999999999362 0.5 0  0.2799999999993897 0.5 0  0.2899999999994175 0.5 0  0.2999999999994452 0.5 0  0.3099999999994729 0.5 0  0.3199999999995007 0.5 0  0.3299999999995284 0.5 0  0.3399999999995562 0.5 0  0.3499999999995839 0.5 0  0.3599999999996116 0.5 0  0.3699999999996393 0.5 0  0.379999999999667 0.5 0  0.3899999999996949 0.5 0  0.3999999999997226 0.5 0  0.4099999999997503 0.5 0  0.419999999999778 0.5 0  0.4299999999998058 0.5 0  0.4399999999998336 0.5 0  0.4499999999998613 0.5 0  0.4599999999998891 0.5 0  0.4699999999999167 0.5 0  0.4799999999999445 0.5 0  0.4899999999999722 0.5 0  0.5 0.4900000000000277 0  0.5 0.4800000000000555 0  0.5 0.4700000000000832 0  0.5 0.4600000000001109 0  0.5 0.4500000000001387 0  0.5 0.4400000000001664 0  0.5 0.4300000000001942 0  0.5 0.4200000000002219 0  0.5 0.4100000000002497 0  0.5 0.4000000000002774 0  0.5 0.3900000000003052 0  0.5 0.3800000000003328 0  0.5 0.3700000000003606 0  0.5 0.3600000000003883 0  0.5 0.3500000000004161 0  0.5 0.3400000000004438 0  0.5 0.3300000000004716 0  0.5 0.3200000000004993 0  0.5 0.3100000000005271 0  0.5 0.3000000000005548 0  0.5 0.2900000000005825 0  0.5 0.2800000000006103 0  0.5 0.2700000000006381 0  0.5 0.2600000000006658 0  0.5 0.2500000000006935 0  0.5 0.2400000000007212 0  0.5 0.230000000000749 0  0.5 0.2200000000007767 0  0.5 0.2100000000008044 0  0.5 0.2000000000008322 0  0.5 0.19000000000086 0  0.5 0.1800000000008877 0  0.5 0.1700000000009154 0  0.5 0.1600000000009431 0  0.5 0.1500000000009709 0  0.5 0.1400000000009986 0  0.5 0.1300000000010264 0  0.5 0.1200000000010541 0  0.5 0.1100000000010818 0  0.5 0.1000000000011096 0  0.5 0.09000000000113734 0  0.5 0.08000000000116503 0  0.5 0.07000000000119283 0  0.5 0.06000000000122058 0  0.5 0.05000000000124827 0  0.5 0.04000000000127607 0  0.5 0.03000000000130376 0  0.5 0.02000000000133151 0  0.5 0.01000000000135925 0  0.5 1.376121439022882e-12 0  0.5 -0.009999999998640763 0  0.5 -0.01999999999866864 0  0.5 -0.02999999999869629 0  0.5 -0.03999999999872406 0  0.5 -0.04999999999875182 0  0.5 -0.05999999999877947 0  0.5 -0.06999999999880724 0  0.5 -0.079999999998835 0  0.5 -0.08999999999886266 0  0.5 -0.09999999999889042 0  0.5 -0.1099999999989182 0  0.5 -0.1199999999989459 0  0.5 -0.1299999999989737 0  0.5 -0.1399999999990014 0  0.5 -0.1499999999990291 0  0.5 -0.1599999999990568 0  0.5 -0.1699999999990847 0  0.5 -0.1799999999991124 0  0.5 -0.1899999999991401 0  0.5 -0.1999999999991678 0  0.5 -0.2099999999991955 0  0.5 -0.2199999999992234 0  0.5 -0.2299999999992511 0  0.5 -0.2399999999992788 0  0.5 -0.2499999999993066 0  0.5 -0.2599999999993342 0  0.5 -0.269999999999362 0  0.5 -0.2799999999993897 0  0.5 -0.2899999999994175 0  0.5 -0.2999999999994452 0  0.5 -0.3099999999994729 0  0.5 -0.3199999999995007 0  0.5 -0.3299999999995284 0  0.5 -0.3399999999995562 0  0.5 -0.3499999999995839 0  0.5 -0.3599999999996116 0  0.5 -0.3699999999996393 0  0.5 -0.379999999999667 0  0.5 -0.3899999999996949 0  0.5 -0.3999999999997226 0  0.5 -0.4099999999997503 0  0.5 -0.419999999999778 0  0.5 -0.4299999999998058 0  0.5 -0.4399999999998336 0  0.5 -0.4499999999998613 0  0.5 -0.4599999999998891 0  0.5 -0.4699999999999167 0  0.5 -0.4799999999999445 0  0.5 -0.4899999999999722 0  0.4900000000000277 -0.5 0  0.4800000000000555 -0.5 0  0.4700000000000832 -0.5 0  0.4600000000001109 -0.5 0  0.4500000000001387 -0.5 0  0.4400000000001664 -0.5 0  0.4300000000001942 -0.5 0  0.4200000000002219 -0.5 0  0.4100000000002497 -0.5 0  0.4000000000002774 -0.5 0  0.3900000000003052 -0.5 0  0.3800000000003328 -0.5 0  0.3700000000003606 -0.5 0  0.3600000000003883 -0.5 0  0.3500000000004161 -0.5 0  0.3400000000004438 -0.5 0  0.3300000000004716 -0.5 0  0.3200000000004993 -0.5 0  0.3100000000005271 -0.5 0  0.3000000000005548 -0.5 0  0.2900000000005825 -0.5 0  0.2800000000006103 -0.5 0  0.2700000000006381 -0.5 0  0.2600000000006658 -0.5 0  0.2500000000006935 -0.5 0  0.2400000000007212 -0.5 0  0.230000000000749 -0.5 0  0.2200000000007767 -0.5 0  0.2100000000008044 -0.5 0  0.2000000000008322 -0.5 0  0.19000000000086 -0.5 0  0.1800000000008877 -0.5 0  0.1700000000009154 -0.5 0  0.1600000000009431 -0.5 0  0.1500000000009709 -0.5 0  0.1400000000009986 -0.5 0  0.1300000000010264 -0.5 0  0.1200000000010541 -0.5 0  0.1100000000010818 -0.5 0  0.1000000000011096 -0.5 0  0.09000000000113734 -0.5 0  0.08000000000116503 -0.5 0  0.07000000000119283 -0.5 0  0.06000000000122058 -0.5 0  0.05000000000124827 -0.5 0  0.04000000000127607 -0.5 0  0.03000000000130376 -0.5 0  0.02000000000133151 -0.5 0  0.01000000000135925 -0.5 0  1.376121439022882e-12 -0.5 0  -0.009999999998640763 -0.5 0  -0.01999999999866864 -0.5 0  -0.02999999999869629 -0.5 0  -0.03999999999872406 -0.5 0  -0.04999999999875182 -0.5 0  -0.05999999999877947 -0.5 0  -0.06999999999880724 -0.5 0  -0.079999999998835 -0.5 0  -0.08999999999886266 -0.5 0  -0.09999999999889042 -0.5 0  -0.1099999999989182 -0.5 0  -0.1199999999989459 -0.5 0  -0.1299999999989737 -0.5 0  -0.1399999999990014 -0.5 0  -0.1499999999990291 -0.5 0  -0.1599999999990568 -0.5 0  -0.1699999999990847 -0.5 0  -0.1799999999991124 -0.5 0  -0.1899999999991401 -0.5 0  -0.1999999999991678 -0.5 0  -0.2099999999991955 -0.5 0  -0.2199999999992234 -0.5 0  -0.2299999999992511 -0.5 0  -0.2399999999992788 -0.5 0  -0.2499999999993066 -0.5 0  -0.2599999999993342 -0.5 0  -0.269999999999362 -0.5 0  -0.2799999999993897 -0.5 0  -0.2899999999994175 -0.5 0  -0.2999999999994452 -0.5 0  -0.3099999999994729 -0.5 0  -0.3199999999995007 -0.5 0  -0.3299999999995284 -0.5 0  -0.3399999999995562 -0.5 0  -0.3499999999995839 -0.5 0  -0.3599999999996116 -0.5 0  -0.3699999999996393 -0.5 0  -0.379999999999667 -0.5 0  -0.3899999999996949 -0.5 0  -0.3999999999997226 -0.5 0  -0.4099999999997503 -0.5 0  -0.419999999999778 -0.5 0  -0.4299999999998058 -0.5 0  -0.4399999999998336 -0.5 0  -0.4499999999998613 -0.5 0  -0.4599999999998891 -0.5 0  -0.4699999999999167 -0.5 0  -0.4799999999999445 -0.5 0  -0.4899999999999722 -0.5 0  -0.5 -0.4900000000000277 0  -0.5 -0.4800000000000555 0  -0.5 -0.4700000000000832 0  -0.5 -0.4600000000001109 0  -0.5 -0.4500000000001387 0  -0.5 -0.4400000000001664 0  -0.5 -0.4300000000001942 0  -0.5 -0.4200000000002219 0  -0.5 -0.4100000000002497 0  -0.5 -0.4000000000002774 0  -0.5 -0.3900000000003052 0  -0.5 -0.3800000000003328 0  -0.5 -0.3700000000003606 0  -0.5 -0.3600000000003883 0  -0.5 -0.3500000000004161 0  -0.5 -0.3400000000004438 0  -0.5 -0.3300000000004716 0  -0.5 -0.3200000000004993 0  -0.5 -0.3100000000005271 0  -0.5 -0.3000000000005548 0  -0.5 -0.2900000000005825 0  -0.5 -0.2800000000006103 0  -0.5 -0.2700000000006381 0  -0.5 -0.2600000000006658 0  -0.5 -0.2500000000006935 0  -0.5 -0.2400000000007212 0  -0.5 -0.230000000000749 0  -0.5 -0.2200000000007767 0  -0.5 -0.2100000000008044 0  -0.5 -0.2000000000008322 0  -0.5 -0.19000000000086 0  -0.5 -0.1800000000008877 0  -0.5 -0.1700000000009154 0  -0.5 -0.1600000000009431 0  -0.5 -0.1500000000009709 0  -0.5 -0.1400000000009986 0  -0.5 -0.1300000000010264 0  -0.5 -0.1200000000010541 0  -0.5 -0.1100000000010818 0  -0.5 -0.1000000000011096 0  -0.5 -0.09000000000113734 0  -0.5 -0.08000000000116503 0  -0.5 -0.07000000000119283 0  -0.5 -0.06000000000122058 0  -0.5 -0.05000000000124827 0  -0.5 -0.04000000000127607 0  -0.5 -0.03000000000130376 0  -0.5 -0.02000000000133151 0  -0.5 -0.01000000000135925 0  -0.5 -1.376121439022882e-12 0  -0.5 0.009999999998640763 0  -0.5 0.01999999999866864 0  -0.5 0.02999999999869629 0  -0.5 0.03999999999872406 0  -0.5 0.04999999999875182 0  -0.5 0.05999999999877947 0  -0.5 0.06999999999880724 0  -0.5 0.079999999998835 0  -0.5 0.08999999999886266 0  -0.5 0.09999999999889042
[...]
<PointData  Vectors="f_27-0"> 
<DataArray  type="Float64"  Name="f_27-0"  NumberOfComponents="3" format="ascii">1.4704810765056159e-03 4.8150371141262666e-02 0.0000000000000000e+00  -2.0283202577163978e-03 4.7897599409424702e-02 0.0000000000000000e+00  -3.7086019537556765e-04 3.8230734684180132e-02 0.0000000000000000e+00  4.8359410716069552e-04 3.8138937013817709e-02 0.0000000000000000e+00  -1.6237975292650248e-03 6.3966544041568763e-03 0.0000000000000000e+00  1.6138655004209301e-03 6.3732028930553550e-03 0.0000000000000000e+00  -8.5078112488232334e-04 6.1600958513019968e-03 0.0000000000000000e+00  8.4599075312500661e-04 6.1805457530861932e-03 0.0000000000000000e+00  2.7138785871207161e-03 4.7419917792679907e-02 0.0000000000000000e+00  3.9147631982457270e-03 4.6611596015772826e-02 0.0000000000000000e+00  5.0669704991963948e-03 4.5730355738065311e-02 0.0000000000000000e+00  6.1671450362857528e-03 4.4780269500893928e-02 0.0000000000000000e+00  7.2095475564534573e-03 4.3767695661658945e-02 0.0000000000000000e+00  8.1919945841084883e-03 4.2696772181654852e-02 0.0000000000000000e+00  9.1096372505776093e-03 4.1575451381816689e-02 0.0000000000000000e+00  9.9614605098508318e-03 4.0408218638955114e-02 0.0000000000000000e+00  1.0744722129681888e-02 3.9201720549866231e-02 0.0000000000000000e+00  1.1456611864801019e-02 3.7963426356624634e-02 0.0000000000000000e+00  1.2097855794603917e-02 3.6699156785887713e-02 0.0000000000000000e+00  1.2667545578162805e-02 3.5414171861550790e-02 0.0000000000000000e+00  1.3165620055895926e-02 3.4115554789489244e-02 0.0000000000000000e+00  1.3593299726772586e-02 3.2807797217444902e-02 0.0000000000000000e+00  1.3949842943742196e-02 3.1499211274143214e-02 0.0000000000000000e+00  1.4238231851765825e-02 3.0193012686171330e-02 0.0000000000000000e+00  1.4459660996553724e-02 2.8894231352566021e-02 0.0000000000000000e+00  1.4615498471755270e-02 2.7608915143034599e-02 0.0000000000000000e+00  1.4708624205943812e-02 2.6341219417080858e-02 0.0000000000000000e+00  1.4741532415317051e-02 2.5093882820210908e-02 0.0000000000000000e+00  1.4716240554239710e-02 2.3871621935651170e-02 0.0000000000000000e+00  1.4636009153166039e-02 2.2676858359083053e-02 0.0000000000000000e+00  1.4503519736404931e-02 2.1512413236552817e-02 0.0000000000000000e+00  1.4321180554987123e-02 2.0382860060870981e-02 0.0000000000000000e+00  1.4092160643011003e-02 1.9288488787885381e-02 0.0000000000000000e+00  1.3819629848621773e-02 1.8231707513426784e-02 0.0000000000000000e+00  1.3505893238107589e-02 1.7214059668057426e-02 0.0000000000000000e+00  1.3153877718853174e-02 1.6237949968536943e-02 0.0000000000000000e+00  1.2766556081474711e-02 1.5302565741473826e-02 0.0000000000000000e+00  1.2346516136236333e-02 1.4409919846435620e-02 0.0000000000000000e+00  1.1895991652147723e-02 1.3560808330525398e-02 0.0000000000000000e+00  1.1417566798483733e-02 1.2755681844536385e-02 0.0000000000000000e+00  1.0913625385933651e-02 1.1995242098720358e-02 0.0000000000000000e+00  1.0386481110725893e-02 1.1278833563061291e-02 0.0000000000000000e+00  9.8379316124996979e-03 1.0606907854177450e-02 0.0000000000000000e+00  9.2700643590406615e-03 9.9790569502031905e-03 0.0000000000000000e+00  8.6849644499839233e-03 9.3961515958813930e-03 0.0000000000000000e+00  8.0840842633445389e-03 8.8572854040541091e-03 0.0000000000000000e+00  7.4692704815380118e-03 8.3621592339970900e-03 0.0000000000000000e+00  6.8420011202837460e-03 7.9115144117954273e-03 0.0000000000000000e+00  6.2038459331773769e-03 7.5041117836138083e-03 0.0000000000000000e+00  5.5562021745519802e-03 7.1391843275454836e-03 0.0000000000000000e+00  4.9000684705136745e-03 6.8183114358789819e-03 0.0000000000000000e+00  4.2368696401808110e-03 6.5398959544580217e-03 0.0000000000000000e+00  3.5676819243748970e-03 6.3039660435189734e-03 0.0000000000000000e+00  2.8933956162952583e-03 6.1100487640257930e-03 0.0000000000000000e+00  2.2156230134006373e-03 5.9587362885479738e-03 0.0000000000000000e+00  1.5347165386593181e-03 5.8489295212080759e-03 0.0000000000000000e+00  8.5226313875198486e-04 5.7804453429637073e-03 0.0000000000000000e+00  1.6863730865978021e-04 5.7541438538009238e-03 0.0000000000000000e+00  -5.1494254472715651e-04 5.7695634194126245e-03 0.0000000000000000e+00  -1.1973961327327567e-03 5.8258600272754870e-03 0.0000000000000000e+00  -1.8781445334555256e-03 5.9236089048623338e-03 0.0000000000000000e+00  -2.5558995769490930e-03 6.0633631692726050e-03 0.0000000000000000e+00  -3.2299348009605208e-03 6.2453339216904449e-03 0.0000000000000000e+00  -3.8989428635581671e-03 6.4691431707570345e-03 0.0000000000000000e+00  -4.5621555879487678e-03 6.7352334457484965e-03 0.0000000000000000e+00  -5.2182678088471199e-03 7.0433663919318617e-03 0.0000000000000000e+00  -5.8663677358018170e-03 7.3942104480949015e-03 0.0000000000000000e+00  -6.5051241111203527e-03 7.7874196490587749e-03 0.0000000000000000e+00  -7.1330002963098356e-03 8.2244905431300801e-03 0.0000000000000000e+00  -7.7491635851390534e-03 8.7043493390611196e-03 0.0000000000000000e+00  -8.3514667738604220e-03 9.2276782099399955e-03 0.0000000000000000e+00  -8.9387604169948436e-03 9.7947178328707668e-03 0.0000000000000000e+00  -9.5093977615720235e-03 1.0405292384347465e-02 0.0000000000000000e+00  -1.0061217331924131e-02 1.1059602389204934e-02 0.0000000000000000e+00  -1.0593068816675957e-02 1.1758164584714424e-02 0.0000000000000000e+00  -1.1101887706374601e-02 1.2500828903315744e-02 0.0000000000000000e+00  -1.1586870728818269e-02 1.3287014754448294e-02 0.0000000000000000e+00  -1.2044575861333598e-02 1.4116612223847087e-02 0.0000000000000000e+00  -1.2473482202885388e-02 1.4989891590259492e-02 0.0000000000000000e+00  -1.2871125156620844e-02 1.5904367448551757e-02 0.0000000000000000e+00  -1.3234714255267854e-02 1.6860044440339644e-02 0.0000000000000000e+00  -1.3562090663466210e-02 1.7857040177624427e-02 0.0000000000000000e+00  -1.3849865708099632e-02 1.8893166773141724e-02 0.0000000000000000e+00  -1.4096377818215452e-02 1.9967080524577231e-02 0.0000000000000000e+00  -1.4297528426757423e-02 2.1077911582719138e-02 0.0000000000000000e+00  -1.4451676309992478e-02 2.2221328070574808e-02 0.0000000000000000e+00  -1.4555565858823999e-02 2.3397169994560662e-02 0.0000000000000000e+00  -1.4606273507005293e-02 2.4602142159880616e-02 0.0000000000000000e+00  -1.4601452298134610e-02 2.5833135959914232e-02 0.0000000000000000e+00  -1.4538090401353811e-02 2.7086523419500564e-02 0.0000000000000000e+00  -1.4414340426872625e-02 2.8359097853249367e-02 0.0000000000000000e+00  -1.4226721117643434e-02 2.9647433637276715e-02 0.0000000000000000e+00  -1.3974519960301950e-02 3.0945021096638811e-02 0.0000000000000000e+00  -1.3655217271858880e-02 3.2248682713364209e-02 0.0000000000000000e+00  -1.3266903149035425e-02 3.3553860642094716e-02 0.0000000000000000e+00  -1.2808706006071823e-02 3.4853864570654633e-02 0.0000000000000000e+00  -1.2279936702814236e-02 3.6143251135005418e-02 0.0000000000000000e+00  -1.1680072917225059e-02 3.7415987730814129e-02 0.0000000000000000e+00  -1.1009338870364675e-02 3.8666491399639083e-02 0.0000000000000000e+00  -1.0267016448700841e-02 3.9889374062969954e-02 0.0000000000000000e+00  -9.4555651514072574e-03 4.1076838646539063e-02 0.0000000000000000e+00  -8.5761228807755465e-03 4.2222919833717398e-02 0.0000000000000000e+00  -7.6300206951908194e-03 4.3322513082107647e-02 0.0000000000000000e+00  -6.6219160678248996e-03 4.4367052827887998e-02 0.0000000000000000e+00  -5.5528268120608086e-03 4.5353019066387931e-02 0.0000000000000000e+00  -4.4278333563521075e-03 4.6273462762933655e-02 0.0000000000000000e+00  -3.2515254079459551e-03 4.7123165792127011e-02 0.0000000000000000e+00  -2.3338066247305454e-03 4.9174875134015562e-02 0.0000000000000000e+00  -2.6619963687874392e-03 5.0517274721161846e-02 0.0000000000000000e+00  -3.0126695081401094e-03 5.1931665132168757e-02 0.0000000000000000e+00  -3.3885987277245005e-03 5.3420095496952959e-02 0.0000000000000000e+00  -3.7904865803723192e-03 5.4989950795466917e-02 0.0000000000000000e+00  -4.2232031446351520e-03 5.6644736862849467e-02 0.0000000000000000e+00  -4.6836569747631873e-03 5.8390927173667437e-02 0.0000000000000000e+00  -5.1806603746183686e-03 6.0235577087043669e-02 0.0000000000000000e+00  -5.7153984166560855e-03 6.2183658688513908e-02 0.0000000000000000e+00  -6.2873926395815398e-03 6.4244488644226938e-02 0.0000000000000000e+00  -6.9033035635248756e-03 6.6425014236086433e-02 0.0000000000000000e+00  -7.5693093659327812e-03 6.8731803244539785e-02 0.0000000000000000e+00  -8.2891908963483151e-03 7.1175489369958586e-02 0.0000000000000000e+00  -9.0709570869934517e-03 7.3759351116356814e-02 0.0000000000000000e+00  -9.9169437801806815e-03 7.6495772083293584e-02 0.0000000000000000e+00  -1.0836465155019343e-02 7.9391344900027305e-02 0.0000000000000000e+00  -1.1840758800473189e-02 8.2447014809722066e-02 0.0000000000000000e+00  -1.2929935526860939e-02 8.5674157505023205e-02 0.0000000000000000e+00  -1.4110454449379903e-02 8.9067035698203692e-02 0.0000000000000000e+00  -1.5385222178159691e-02 9.2618196761515476e-02 0.0000000000000000e+00  -1.6736031709651256e-02 9.6320419716314137e-02 0.0000000000000000e+00  -1.8139607200650311e-02 1.0014414147569524e-01 0.0000000000000000e+00  -1.9530287445868350e-02 1.0405496455046338e-01 0.0000000000000000e+00  -2.0809091908545276e-02 1.0800123278983852e-01 0.0000000000000000e+00  -2.1796164190593284e-02 1.1190722484871612e-01 0.0000000000000000e+00  -2.2232782029759784e-02 1.1567707562249011e-01 0.0000000000000000e+00  -2.1739500287946325e-02 1.1918853933572561e-01 0.0000000000000000e+00  -1.9836169026020100e-02 1.2231394614634541e-01 0.0000000000000000e+00  -1.5908545907209786e-02 1.2491003581595614e-01 0.0000000000000000e+00  -9.3841622516122065e-03 1.2684656004608566e-01 0.0000000000000000e+00  1.6488545107820634e-04 1.2803381266119646e-01 0.0000000000000000e+00  1.2723752494453235e-02 1.2841145115752062e-01 0.0000000000000000e+00  2.7549444124073702e-02 1.2791641868135739e-01 0.0000000000000000e+00  4.3130229223296179e-02 1.2651972660273114e-01 0.0000000000000000e+00  5.7134566713340496e-02 1.2397182014344456e-01 0.0000000000000000e+00  6.6564971824623578e-02 1.2007504567104667e-01 0.0000000000000000e+00  6.8142457111613319e-02 1.1449685355798939e-01 0.0000000000000000e+00  5.8262448774586799e-02 1.0774876131125952e-01 0.0000000000000000e+00  3.5392009342960218e-02 1.0096256315042561e-01 0.0000000000000000e+00  1.8302372648172280e-03 9.7190805453241630e-02 0.0000000000000000e+00  -3.3471540606772814e-02 9.9393978345986039e-02 0.0000000000000000e+00  -5.7816228390029416e-02 1.0924927745298089e-01 0.0000000000000000e+00  -6.4155154166547365e-02 1.2496077187831123e-01 0.0000000000000000e+00  -5.7256638197408963e-02 1.4140423041381583e-01 0.0000000000000000e+00  -4.6911657743999496e-02 1.5445871775351966e-01 0.0000000000000000e+00  -3.7597339342644830e-02 1.6347728235208800e-01 0.0000000000000000e+00  -2.9769100729359312e-02 1.6909470415463432e-01 0.0000000000000000e+00  -2.3163982161349621e-02 1.7228067675180300e-01 0.0000000000000000e+00  -1.7423373968115198e-02 1.7359365010174127e-01 0.0000000000000000e+00  -1.2423800602689650e-02 1.7344285918734256e-01 0.0000000000000000e+00  -8.0749645032151610e-03 1.7211860199412421e-01 0.0000000000000000e+00  -4.3092337314904116e-03 1.6986515665565868e-01 0.0000000000000000e+00  -1.0730742347144369e-03 1.6687880343156170e-01 0.0000000000000000e+00  1.6998444953942064e-03 1.6330614071101449e-01 0.0000000000000000e+00  4.0171025164727429e-03 1.5928007563387270e-01 0.0000000000000000e+00  5.9363691311125032e-03 1.5491389277813336e-01 0.0000000000000000e+00  7.4822189268948245e-03 1.5031378428341957e-01 0.0000000000000000e+00  8.6896171090568609e-03 1.4556838103268230e-01 0.0000000000000000e+00  9.6048851184933632e-03 1.4074178765507209e-01 0.0000000000000000e+00  1.0258652516706431e-02 1.3590070948380470e-01 0.0000000000000000e+00  1.0693495258682012e-02 1.3108537084059776e-01 0.0000000000000000e+00  1.0936042282550577e-02 1.2634281211350967e-01 0.0000000000000000e+00  1.1021018976412391e-02 1.2170178600767237e-01 0.0000000000000000e+00  1.0973900407793133e-02 1.1718570762406154e-01 0.0000000000000000e+00  1.0820108972349906e-02 1.1281288918610309e-01 0.0000000000000000e+00  1.0582381469949890e-02 1.0859217534159499e-01 0.0000000000000000e+00  1.0279158652932609e-02 1.0453810890274748e-01 0.0000000000000000e+00  9.9289922695573237e-03 1.0064269917160167e-01 0.0000000000000000e+00  9.5408756347853414e-03 9.6920945857518981e-02 0.0000000000000000e+00  9.1283738528303293e-03 9.3359778251018127e-02 0.0000000000000000e+00  8.6977520887314367e-03 8.9962895852592900e-02 0.0000000000000000e+00  8.2538311286778996e-03 8.6725711184053644e-02 0.0000000000000000e+00  7.8045810480159702e-03 8.3644725220813607e-02 0.0000000000000000e+00  7.3571708174122044e-03 8.0709936816021441e-02 0.0000000000000000e+00  6.9137970674080377e-03 7.7915043294002534e-02 0.0000000000000000e+00  6.4746976731045961e-03 7.5259339936382258e-02 0.0000000000000000e+00  6.0469028416785166e-03 7.2729087530366859e-02 0.0000000000000000e+00  5.6245752698900701e-03 7.0323524240197388e-02 0.0000000000000000e+00  5.2151494241370272e-03 6.8032855698619207e-02 0.0000000000000000e+00  4.8182309619155660e-03 6.5853223792439838e-02 0.0000000000000000e+00  4.4332195066407471e-03 6.3778242406383426e-02 0.0000000000000000e+00  4.0611748375156461e-03 6.1801212853061456e-02 0.0000000000000000e+00  3.7028317103016710e-03 5.9918894008258658e-02 0.0000000000000000e+00  3.3587330873175087e-03 5.8123288110494220e-02 0.0000000000000000e+00  3.0270167003186776e-03 5.6412620480873268e-02 0.0000000000000000e+00  2.7096752987001041e-03 5.4779685560372743e-02 0.0000000000000000e+00  2.4069280744083116e-03 5.3222170878649652e-02 0.0000000000000000e+00  2.1169649266920255e-03 5.1734734803293131e-02 0.0000000000000000e+00  1.8405210265323314e-03 5.0314763216712348e-02 0.0000000000000000e+00  1.5767689298403146e-03 4.8957571594860499e-02 0.0000000000000000e+00  1.3268742755579445e-03 4.7660947199141455e-02 0.0000000000000000e+00  1.0904647161595071e-03 4.6420600211661535e-02 0.0000000000000000e+00  8.6620463988367456e-04 4.5234716085069356e-02 0.0000000000000000e+00  6.5379123536854836e-04 4.4099682325566283e-02 0.0000000000000000e+00  4.5440624558848274e-04 4.3012819651550231e-02 0.0000000000000000e+00  2.6628004655178335e-04 4.1972660642323155e-02 0.0000000000000000e+00  9.0335176957940036e-05 4.0975957772406688e-02 0.0000000000000000e+00  -7.3569732689864672e-05 4.0021286828687920e-02 0.0000000000000000e+00  -2.2718756845924027e-04 3.9106846741964879e-02 0.0000000000000000e+00  4.7485083884746894e-04 3.7728174682569761e-02 0.0000000000000000e+00  1.2942233626218613e-03 3.7178459883011487e-02 0.0000000000000000e+00  2.0854207270796280e-03 3.6583183169147576e-02 0.0000000000000000e+00  2.8451799390859355e-03 3.5945318453624607e-02 0.0000000000000000e+00  3.5719061585668091e-03 3.5267082762882949e-02 0.0000000000000000e+00  4.2627796699584875e-03 3.4552203245019480e-02 0.0000000000000000e+00  4.9167097169112188e-03 3.3802631892194020e-02 0.0000000000000000e+00  5.5312313106708815e-03 3.3022159206936678e-02 0.0000000000000000e+00  6.1051647722134101e-03 3.2213874178771973e-02 0.0000000000000000e+00  6.6379294075471903e-03 3.1380726619192230e-02 0.0000000000000000e+00  7.1278806118520565e-03 3.0526198428726687e-02 0.0000000000000000e+00  7.5743577015715833e-03 2.9654281320586742e-02 0.0000000000000000e+00  7.9769421628490718e-03 2.8767750678847393e-02 0.0000000000000000e+00  8.3349054667833291e-03 2.7870781161892760e-02 0.0000000000000000e+00  8.6491318736049427e-03 2.6965403865555591e-02 0.0000000000000000e+00  8.9189664502031599e-03 2.6055905093778697e-02 0.0000000000000000e+00  9.1449454103882458e-03 2.5145630741804172e-02 0.0000000000000000e+00  9.3277905045163513e-03 2.4237180856445158e-02 0.0000000000000000e+00  9.4681223862612008e-03 2.3333346874766007e-02 0.0000000000000000e+00  9.5664798607094439e-03 2.2437832063982720e-02 0.0000000000000000e+00  9.6242059938787365e-03 2.1552693767198726e-02 0.0000000000000000e+00  9.6421796606505818e-03 2.0680969255764767e-02 0.0000000000000000e+00  9.6215484661748858e-03 1.9825115387134443e-02 0.0000000000000000e+00  9.5641512798666471e-03 1.8986507052156310e-02 0.0000000000000000e+00  9.4709523481342588e-03 1.8167905682175869e-02 0.0000000000000000e+00  9.3434318397205996e-03 1.7371102545547197e-02 0.0000000000000000e+00  9.1832822656349126e-03 1.6597975106090047e-02 0.0000000000000000e+00  8.9921631662225297e-03 1.5849534907510000e-02 0.0000000000000000e+00  8.7714230896376467e-03 1.5128319352781491e-02 0.0000000000000000e+00  8.5225311265919885e-03 1.4434962437124667e-02 0.0000000000000000e+00  8.2474155388867886e-03 1.3770696480245915e-02 0.0000000000000000e+00  7.9474616719149502e-03 1.3136444187937125e-02 0.0000000000000000e+00  7.6244470167806744e-03 1.2532894512432079e-02 0.0000000000000000e+00  7.2796887028412473e-03 1.1961412233540553e-02 0.0000000000000000e+00  6.9149325014157444e-03 1.1422401241529389e-02 0.0000000000000000e+00  6.5316592155338698e-03 1.0916822329290756e-02 0.0000000000000000e+00  6.1311285259585055e-03 1.0444333420741777e-02 0.0000000000000000e+00  5.7150652290633482e-03 1.0006105335240592e-02 0.0000000000000000e+00  5.2845872518305376e-03 9.6022220679591284e-03 0.0000000000000000e+00  4.8414068342675807e-03 9.2325950392399686e-03 0.0000000000000000e+00  4.3866063343716306e-03 8.8981575360511916e-03 0.0000000000000000e+00  3.9213968235934900e-03 8.5994564059844372e-03 0.0000000000000000e+00  3.4472877491910242e-03 8.3353974648119281e-03 0.0000000000000000e+00  2.9652498054667611e-03 8.1067966350654060e-03 0.0000000000000000e+00  2.4765764665702667e-03 7.9135573424901177e-03 0.0000000000000000e+00  1.9825449745629734e-03 7.7558536497185845e-03 0.0000000000000000e+00  1.4840576369758026e-03 7.6332685509675410e-03 0.0000000000000000e+00  9.8268888492392126e-04 7.5466252337099901e-03 0.0000000000000000e+00  4.7905836519596492e-04 7.4958934950579842e-03 0.0000000000000000e+00  -2.5331460037587362e-05 7.4803826829433978e-03 0.0000000000000000e+00  -5.2959170972789857e-04 7.5003969701572179e-03 0.0000000000000000e+00  -1.0326802846869507e-03 7.5563871528815819e-03 0.0000000000000000e+00  -1.5332323506290723e-03 7.6480771855911168e-03 0.0000000000000000e+00  -2.0303118644654878e-03 7.7750924272710882e-03 0.0000000000000000e+00  -2.5226843644331428e-03 7.9373730073740937e-03 0.0000000000000000e+00  -3.0094414925137089e-03 8.1351187789147107e-03 0.0000000000000000e+00  -3.4891224615601190e-03 8.3680554475629460e-03 0.0000000000000000e+00  -3.9607500234827980e-03 8.6365082185800579e-03 0.0000000000000000e+00  -4.4229610104031588e-03 8.9399118569004673e-03 0.0000000000000000e+00  -4.8744642252285478e-03 9.2785550444398207e-03 0.0000000000000000e+00  -5.3142782707492082e-03 9.6513388080459225e-03 0.0000000000000000e+00  -5.7406434430801291e-03 1.0058915225790239e-02 0.0000000000000000e+00  -6.1526466705165549e-03 1.0500569436832448e-02 0.0000000000000000e+00  -6.5486405062125472e-03 1.0975980558362058e-02 0.0000000000000000e+00  -6.9271647617158462e-03 1.1484739719874040e-02 0.0000000000000000e+00  -7.2869036137398480e-03 1.2026379493514056e-02 0.0000000000000000e+00  -7.6261481883322336e-03 1.2600083722213787e-02 0.0000000000000000e+00  -7.9438663737654985e-03 1.3204883622474996e-02 0.0000000000000000e+00  -8.2377797748988280e-03 1.3840606173819887e-02 0.0000000000000000e+00  -8.5071001326645149e-03 1.4505856262264393e-02 0.0000000000000000e+00  -8.7497978214145580e-03 1.5199487940863080e-02 0.0000000000000000e+00  -8.9642644100778549e-03 1.5921221262322767e-02 0.0000000000000000e+00  -9.1490629803533292e-03 1.6669501112311382e-02 0.0000000000000000e+00  -9.3027236435451969e-03 1.7441883303719680e-02 0.0000000000000000e+00  -9.4238729797127257e-03 1.8237472068445528e-02 0.0000000000000000e+00  -9.5103392186417276e-03 1.9054274090212417e-02 0.0000000000000000e+00  -9.5617657455837474e-03