<?xml version="1.0"?>
<VTKFile type="UnstructuredGrid"  version="0.1"  >
<UnstructuredGrid>
<Piece  NumberOfPoints="16275" NumberOfCells="32468">
<Points>
<DataArray  type="Float64"  NumberOfComponents="3"  format="ascii">-0.5 0.5 0  0.5 0.5 0  0.5 -0.5 0  -0.5 -0.5 0  -1 1 0  1 1 0  1 -1 0  -1 -1 0  -0.4900000000000277 0.5 0  -0.4800000000000555 0.5 0  -0.4700000000000832 0.5 0  -0.4600000000001109 0.5 0  -0.4500000000001387 0.5 0  -0.4400000000001664 0.5 0  -0.4300000000001942 0.5 0  -0.4200000000002219 0.5 0  -0.4100000000002497 0.5 0  -0.4000000000002774 0.5 0  -0.3900000000003052 0.5 0  -0.3800000000003328 0.5 0  -0.3700000000003606 0.5 0  -0.3600000000003883 0.5 0  -0.3500000000004161 0.5 0  -0.3400000000004438 0.5 0  -0.3300000000004716 0.5 0  -0.3200000000004993 0.5 0  -0.3100000000005271 0.5 0  -0.3000000000005548 0.5 0  -0.2900000000005825 0.5 0  -0.2800000000006103 0.5 0  -0.2700000000006381 0.5 0  -0.2600000000006658 0.5 0  -0.2500000000006935 0.5 0  -0.2400000000007212 0.5 0  -0.230000000000749 0.5 0  -0.2200000000007767 0.5 0  -0.2100000000008044 0.5 0  -0.2000000000008322 0.5 0  -0.19000000000086 0.5 0  -0.1800000000008877 0.5 0  -0.1700000000009154 0.5 0  -0.1600000000009431 0.5 0  -0.1500000000009709 0.5 0  -0.1400000000009986 0.5 0  -0.1300000000010264 0.5 0  -0.1200000000010541 0.5 0  -0.1100000000010818 0.5 0  -0.1000000000011096 0.5 0  -0.09000000000113734 0.5 0  -0.08000000000116503 0.5 0  -0.07000000000119283 0.5 0  -0.06000000000122058 0.5 0  -0.05000000000124827 0.5 0  -0.04000000000127607 0.5 0  -0.03000000000130376 0.5 0  -0.02000000000133151 0.5 0  -0.01000000000135925 0.5 0  -1.376121439022882e-12 0.5 0  0.009999999998640763 0.5 0  0.01999999999866864 0.5 0  0.02999999999869629 0.5 0  0.03999999999872406 0.5 0  0.04999999999875182 0.5 0  0.05999999999877947 0.5 0  0.06999999999880724 0.5 0  0.079999999998835 0.5 0  0.08999999999886266 0.5 0  0.09999999999889042 0.5 0  0.1099999999989182 0.5 0  0.1199999999989459 0.5 0  0.1299999999989737 0.5 0  0.1399999999990014 0.5 0  0.1499999999990291 0.5 0  0.1599999999990568 0.5 0  0.1699999999990847 0.5 0  0.1799999999991124 0.5 0  0.1899999999991401 0.5 0  0.1999999999991678 0.5 0  0.2099999999991955 0.5 0  0.2199999999992234 0.5 0  0.2299999999992511 0.5 0  0.2399999999992788 0.5 0  0.2499999999993066 0.5 0  0.2599999999993342 0.5 0  0.269999999999362 0.5 0  0.2799999999993897 0.5 0  0.2899999999994175 0.5 0  0.2999999999994452 0.5 0  0.3099999999994729 0.5 0  0.3199999999995007 0.5 0  0.3299999999995284 0.5 0  0.3399999999995562 0.5 0  0.3499999999995839 0.5 0  0.3599999999996116 0.5 0  0.3699999999996393 0.5 0  0.379999999999667 0.5 0  0.3899999999996949 0.5 0  0.3999999999997226 0.5 0  0.4099999999997503 0.5 0  0.419999999999778 0.5 0  0.4299999999998058 0.5 0  0.4399999999998336 0.5 0  0.4499999999998613 0.5 0  0.4599999999998891 0.5 0  0.4699999999999167 0.5 0  0.4799999999999445 0.5 0  0.4899999999999722 0.5 0  0.5 0.4900000000000277 0  0.5 0.4800000000000555 0  0.5 0.4700000000000832 0  0.5 0.4600000000001109 0  0.5 0.4500000000001387 0  0.5 0.4400000000001664 0  0.5 0.4300000000001942 0  0.5 0.4200000000002219 0  0.5 0.4100000000002497 0  0.5 0.4000000000002774 0  0.5 0.3900000000003052 0  0.5 0.3800000000003328 0  0.5 0.3700000000003606 0  0.5 0.3600000000003883 0  0.5 0.3500000000004161 0  0.5 0.3400000000004438 0  0.5 0.3300000000004716 0  0.5 0.3200000000004993 0  0.5 0.3100000000005271 0  0.5 0.3000000000005548 0  0.5 0.2900000000005825 0  0.5 0.2800000000006103 0  0.5 0.2700000000006381 0  0.5 0.2600000000006658 0  0.5 0.2500000000006935 0  0.5 0.2400000000007212 0  0.5 0.230000000000749 0  0.5 0.2200000000007767 0  0.5 0.2100000000008044 0  0.5 0.2000000000008322 0  0.5 0.19000000000086 0  0.5 0.1800000000008877 0  0.5 0.1700000000009154 0  0.5 0.1600000000009431 0  0.5 0.1500000000009709 0  0.5 0.1400000000009986 0  0.5 0.1300000000010264 0  0.5 0.1200000000010541 0  0.5 0.1100000000010818 0  0.5 0.1000000000011096 0  0.5 0.09000000000113734 0  0.5 0.08000000000116503 0  0.5 0.07000000000119283 0  0.5 0.06000000000122058 0  0.5 0.05000000000124827 0  0.5 0.04000000000127607 0  0.5 0.03000000000130376 0  0.5 0.02000000000133151 0  0.5 0.01000000000135925 0  0.5 1.376121439022882e-12 0  0.5 -0.009999999998640763 0  0.5 -0.01999999999866864 0  0.5 -0.02999999999869629 0  0.5 -0.03999999999872406 0  0.5 -0.04999999999875182 0  0.5 -0.05999999999877947 0  0.5 -0.06999999999880724 0  0.5 -0.079999999998835 0  0.5 -0.08999999999886266 0  0.5 -0.09999999999889042 0  0.5 -0.1099999999989182 0  0.5 -0.1199999999989459 0  0.5 -0.1299999999989737 0  0.5 -0.1399999999990014 0  0.5 -0.1499999999990291 0  0.5 -0.1599999999990568 0  0.5 -0.1699999999990847 0  0.5 -0.1799999999991124 0  0.5 -0.1899999999991401 0  0.5 -0.1999999999991678 0  0.5 -0.2099999999991955 0  0.5 -0.2199999999992234 0  0.5 -0.2299999999992511 0  0.5 -0.2399999999992788 0  0.5 -0.2499999999993066 0  0.5 -0.2599999999993342 0  0.5 -0.269999999999362 0  0.5 -0.2799999999993897 0  0.5 -0.2899999999994175 0  0.5 -0.2999999999994452 0  0.5 -0.3099999999994729 0  0.5 -0.3199999999995007 0  0.5 -0.3299999999995284 0  0.5 -0.3399999999995562 0  0.5 -0.3499999999995839 0  0.5 -0.3599999999996116 0  0.5 -0.3699999999996393 0  0.5 -0.379999999999667 0  0.5 -0.3899999999996949 0  0.5 -0.3999999999997226 0  0.5 -0.4099999999997503 0  0.5 -0.419999999999778 0  0.5 -0.4299999999998058 0  0.5 -0.4399999999998336 0  0.5 -0.4499999999998613 0  0.5 -0.4599999999998891 0  0.5 -0.4699999999999167 0  0.5 -0.4799999999999445 0  0.5 -0.4899999999999722 0  0.4900000000000277 -0.5 0  0.4800000000000555 -0.5 0  0.4700000000000832 -0.5 0  0.4600000000001109 -0.5 0  0.4500000000001387 -0.5 0  0.4400000000001664 -0.5 0  0.4300000000001942 -0.5 0  0.4200000000002219 -0.5 0  0.4100000000002497 -0.5 0  0.4000000000002774 -0.5 0  0.3900000000003052 -0.5 0  0.3800000000003328 -0.5 0  0.3700000000003606 -0.5 0  0.3600000000003883 -0.5 0  0.3500000000004161 -0.5 0  0.3400000000004438 -0.5 0  0.3300000000004716 -0.5 0  0.3200000000004993 -0.5 0  0.3100000000005271 -0.5 0  0.3000000000005548 -0.5 0  0.2900000000005825 -0.5 0  0.2800000000006103 -0.5 0  0.2700000000006381 -0.5 0  0.2600000000006658 -0.5 0  0.2500000000006935 -0.5 0  0.2400000000007212 -0.5 0  0.230000000000749 -0.5 0  0.2200000000007767 -0.5 0  0.2100000000008044 -0.5 0  0.2000000000008322 -0.5 0  0.19000000000086 -0.5 0  0.1800000000008877 -0.5 0  0.1700000000009154 -0.5 0  0.1600000000009431 -0.5 0  0.1500000000009709 -0.5 0  0.1400000000009986 -0.5 0  0.1300000000010264 -0.5 0  0.1200000000010541 -0.5 0  0.1100000000010818 -0.5 0  0.1000000000011096 -0.5 0  0.09000000000113734 -0.5 0  0.08000000000116503 -0.5 0  0.07000000000119283 -0.5 0  0.06000000000122058 -0.5 0  0.05000000000124827 -0.5 0  0.04000000000127607 -0.5 0  0.03000000000130376 -0.5 0  0.02000000000133151 -0.5 0  0.01000000000135925 -0.5 0  1.376121439022882e-12 -0.5 0  -0.009999999998640763 -0.5 0  -0.01999999999866864 -0.5 0  -0.02999999999869629 -0.5 0  -0.03999999999872406 -0.5 0  -0.04999999999875182 -0.5 0  -0.05999999999877947 -0.5 0  -0.06999999999880724 -0.5 0  -0.079999999998835 -0.5 0  -0.08999999999886266 -0.5 0  -0.09999999999889042 -0.5 0  -0.1099999999989182 -0.5 0  -0.1199999999989459 -0.5 0  -0.1299999999989737 -0.5 0  -0.1399999999990014 -0.5 0  -0.1499999999990291 -0.5 0  -0.1599999999990568 -0.5 0  -0.1699999999990847 -0.5 0  -0.1799999999991124 -0.5 0  -0.1899999999991401 -0.5 0  -0.1999999999991678 -0.5 0  -0.2099999999991955 -0.5 0  -0.2199999999992234 -0.5 0  -0.2299999999992511 -0.5 0  -0.2399999999992788 -0.5 0  -0.2499999999993066 -0.5 0  -0.2599999999993342 -0.5 0  -0.269999999999362 -0.5 0  -0.2799999999993897 -0.5 0  -0.2899999999994175 -0.5 0  -0.2999999999994452 -0.5 0  -0.3099999999994729 -0.5 0  -0.3199999999995007 -0.5 0  -0.3299999999995284 -0.5 0  -0.3399999999995562 -0.5 0  -0.3499999999995839 -0.5 0  -0.3599999999996116 -0.5 0  -0.3699999999996393 -0.5 0  -0.379999999999667 -0.5 0  -0.3899999999996949 -0.5 0  -0.3999999999997226 -0.5 0  -0.4099999999997503 -0.5 0  -0.419999999999778 -0.5 0  -0.4299999999998058 -0.5 0  -0.4399999999998336 -0.5 0  -0.4499999999998613 -0.5 0  -0.4599999999998891 -0.5 0  -0.4699999999999167 -0.5 0  -0.4799999999999445 -0.5 0  -0.4899999999999722 -0.5 0  -0.5 -0.4900000000000277 0  -0.5 -0.4800000000000555 0  -0.5 -0.4700000000000832 0  -0.5 -0.4600000000001109 0  -0.5 -0.4500000000001387 0  -0.5 -0.4400000000001664 0  -0.5 -0.4300000000001942 0  -0.5 -0.4200000000002219 0  -0.5 -0.4100000000002497 0  -0.5 -0.4000000000002774 0  -0.5 -0.3900000000003052 0  -0.5 -0.3800000000003328 0  -0.5 -0.3700000000003606 0  -0.5 -0.3600000000003883 0  -0.5 -0.3500000000004161 0  -0.5 -0.3400000000004438 0  -0.5 -0.3300000000004716 0  -0.5 -0.3200000000004993 0  -0.5 -0.3100000000005271 0  -0.5 -0.3000000000005548 0  -0.5 -0.2900000000005825 0  -0.5 -0.2800000000006103 0  -0.5 -0.2700000000006381 0  -0.5 -0.2600000000006658 0  -0.5 -0.2500000000006935 0  -0.5 -0.2400000000007212 0  -0.5 -0.230000000000749 0  -0.5 -0.2200000000007767 0  -0.5 -0.2100000000008044 0  -0.5 -0.2000000000008322 0  -0.5 -0.19000000000086 0  -0.5 -0.1800000000008877 0  -0.5 -0.1700000000009154 0  -0.5 -0.1600000000009431 0  -0.5 -0.1500000000009709 0  -0.5 -0.1400000000009986 0  -0.5 -0.1300000000010264 0  -0.5 -0.1200000000010541 0  -0.5 -0.1100000000010818 0  -0.5 -0.1000000000011096 0  -0.5 -0.09000000000113734 0  -0.5 -0.08000000000116503 0  -0.5 -0.07000000000119283 0  -0.5 -0.06000000000122058 0  -0.5 -0.05000000000124827 0  -0.5 -0.04000000000127607 0  -0.5 -0.03000000000130376 0  -0.5 -0.02000000000133151 0  -0.5 -0.01000000000135925 0  -0.5 -1.376121439022882e-12 0  -0.5 0.009999999998640763 0  -0.5 0.01999999999866864 0  -0.5 0.02999999999869629 0  -0.5 0.03999999999872406 0  -0.5 0.04999999999875182 0  -0.5 0.05999999999877947 0  -0.5 0.06999999999880724 0  -0.5 0.079999999998835 0  -0.5 0.08999999999886266 0  -0.5 0.09999999999889042
[...]
<PointData  Vectors="f_27-0"> 
<DataArray  type="Float64"  Name="f_27-0"  NumberOfComponents="3" format="ascii">8.4717810865816897e-05 4.6265372894963568e-02 0.0000000000000000e+00  -3.6075535474385401e-04 4.6175656149300706e-02 0.0000000000000000e+00  -1.5309176075025729e-03 3.6727581579451003e-02 0.0000000000000000e+00  1.6260064339605857e-03 3.6692454804605514e-02 0.0000000000000000e+00  -7.3804830089221410e-03 1.4452191293832184e-02 0.0000000000000000e+00  7.3944012633138318e-03 1.4477974955849938e-02 0.0000000000000000e+00  -5.8166775779634333e-03 1.2804073541095111e-02 0.0000000000000000e+00  5.8054222674323976e-03 1.2797786211779887e-02 0.0000000000000000e+00  1.1074484241847416e-03 4.5636941588278787e-02 0.0000000000000000e+00  2.0992697554516652e-03 4.4943783592588431e-02 0.0000000000000000e+00  3.0567335823274955e-03 4.4188980866746795e-02 0.0000000000000000e+00  3.9765291471329208e-03 4.3375919653064379e-02 0.0000000000000000e+00  4.8556195451930038e-03 4.2508323315553723e-02 0.0000000000000000e+00  5.6912240445214715e-03 4.1590193142556714e-02 0.0000000000000000e+00  6.4808536656305680e-03 4.0625849726118241e-02 0.0000000000000000e+00  7.2222680808762402e-03 3.9619711162711548e-02 0.0000000000000000e+00  7.9135866257747083e-03 3.8576387263210381e-02 0.0000000000000000e+00  8.5532259615548126e-03 3.7500684961091428e-02 0.0000000000000000e+00  9.1399314455314819e-03 3.6397409327451669e-02 0.0000000000000000e+00  9.6727422537564861e-03 3.5271349320645691e-02 0.0000000000000000e+00  1.0151016411038558e-02 3.4127360644325762e-02 0.0000000000000000e+00  1.0574428827811753e-02 3.2970195190570345e-02 0.0000000000000000e+00  1.0942946867963248e-02 3.1804571487835234e-02 0.0000000000000000e+00  1.1256823199661292e-02 3.0634994256229793e-02 0.0000000000000000e+00  1.1516553044235945e-02 2.9465873821553502e-02 0.0000000000000000e+00  1.1722912914971455e-02 2.8301462512482358e-02 0.0000000000000000e+00  1.1876869947486171e-02 2.7145748488464246e-02 0.0000000000000000e+00  1.1979611056036843e-02 2.6002513068650850e-02 0.0000000000000000e+00  1.2032498009418718e-02 2.4875353922167311e-02 0.0000000000000000e+00  1.2037066795870181e-02 2.3767546768524432e-02 0.0000000000000000e+00  1.1994987299143533e-02 2.2682182248593457e-02 0.0000000000000000e+00  1.1908039985057526e-02 2.1622100943393851e-02 0.0000000000000000e+00  1.1778096926805211e-02 2.0589824527767631e-02 0.0000000000000000e+00  1.1607088340683122e-02 1.9587687841176461e-02 0.0000000000000000e+00  1.1397033293691130e-02 1.8617744059737464e-02 0.0000000000000000e+00  1.1149955688909571e-02 1.7681838509278795e-02 0.0000000000000000e+00  1.0867907135179858e-02 1.6781590559472100e-02 0.0000000000000000e+00  1.0552949825128971e-02 1.5918375218850755e-02 0.0000000000000000e+00  1.0207104849803954e-02 1.5093405622901228e-02 0.0000000000000000e+00  9.8324111326344357e-03 1.4307704929303954e-02 0.0000000000000000e+00  9.4308387049888004e-03 1.3562124614748532e-02 0.0000000000000000e+00  9.0043340823401166e-03 1.2857335225205756e-02 0.0000000000000000e+00  8.5547802369889594e-03 1.2193908248232231e-02 0.0000000000000000e+00  8.0840240324556584e-03 1.1572263358791166e-02 0.0000000000000000e+00  7.5938370220940913e-03 1.0992749611988635e-02 0.0000000000000000e+00  7.0859341269211016e-03 1.0455582708156108e-02 0.0000000000000000e+00  6.5619666013986451e-03 9.9609132642408307e-03 0.0000000000000000e+00  6.0235358869150770e-03 9.5088459680944867e-03 0.0000000000000000e+00  5.4721559070994028e-03 9.0994062694177008e-03 0.0000000000000000e+00  4.9093019119681169e-03 8.7325914128146831e-03 0.0000000000000000e+00  4.3363883370846302e-03 8.4083701268031791e-03 0.0000000000000000e+00  3.7547873222944081e-03 8.1266788791880991e-03 0.0000000000000000e+00  3.1658043075012423e-03 7.8874614914106553e-03 0.0000000000000000e+00  2.5707089731473970e-03 7.6906288483093123e-03 0.0000000000000000e+00  1.9707608705311708e-03 7.5361333311773178e-03 0.0000000000000000e+00  1.3671475458890835e-03 7.4238999921034917e-03 0.0000000000000000e+00  7.6106417957608403e-04 7.3538697382447872e-03 0.0000000000000000e+00  1.5367861316419404e-04 7.3260234435555587e-03 0.0000000000000000e+00  -4.5385049435679606e-04 7.3403322023416623e-03 0.0000000000000000e+00  -1.0603581397149813e-03 7.3967845090574524e-03 0.0000000000000000e+00  -1.6646918960017720e-03 7.4954043315168667e-03 0.0000000000000000e+00  -2.2656640214855218e-03 7.6362197442687791e-03 0.0000000000000000e+00  -2.8620989195428238e-03 7.8192737124681503e-03 0.0000000000000000e+00  -3.4527622081603477e-03 8.0446059134734182e-03 0.0000000000000000e+00  -4.0364059899839575e-03 8.3122850574974590e-03 0.0000000000000000e+00  -4.6117424010428927e-03 8.6223651616960315e-03 0.0000000000000000e+00  -5.1774405745345599e-03 8.9748942294673902e-03 0.0000000000000000e+00  -5.7321202312363949e-03 9.3698947933868876e-03 0.0000000000000000e+00  -6.2743416584272660e-03 9.8073903013933886e-03 0.0000000000000000e+00  -6.8026312468662834e-03 1.0287335138012086e-02 0.0000000000000000e+00  -7.3154156382884044e-03 1.0809661654023042e-02 0.0000000000000000e+00  -7.8111039616989763e-03 1.1374240832979967e-02 0.0000000000000000e+00  -8.2880140488463816e-03 1.1980872659392858e-02 0.0000000000000000e+00  -8.7444169533845619e-03 1.2629268267232978e-02 0.0000000000000000e+00  -9.1785345289701059e-03 1.3319035442821276e-02 0.0000000000000000e+00  -9.5884854229339109e-03 1.4049680111512900e-02 0.0000000000000000e+00  -9.9724069031508402e-03 1.4820585831832630e-02 0.0000000000000000e+00  -1.0328312894483315e-02 1.5630969567003317e-02 0.0000000000000000e+00  -1.0654255171524296e-02 1.6479917386647232e-02 0.0000000000000000e+00  -1.0948194492631744e-02 1.7366321934913598e-02 0.0000000000000000e+00  -1.1208096118828588e-02 1.8288868167696384e-02 0.0000000000000000e+00  -1.1431938223640832e-02 1.9246096341464857e-02 0.0000000000000000e+00  -1.1617671561418765e-02 2.0236286222912396e-02 0.0000000000000000e+00  -1.1763300613792108e-02 2.1257496852610098e-02 0.0000000000000000e+00  -1.1866862806568340e-02 2.2307559212332805e-02 0.0000000000000000e+00  -1.1926438243386709e-02 2.3384023589033548e-02 0.0000000000000000e+00  -1.1940206191996311e-02 2.4484275637945266e-02 0.0000000000000000e+00  -1.1906444427341456e-02 2.5605356689040217e-02 0.0000000000000000e+00  -1.1823560583415306e-02 2.6744109667946030e-02 0.0000000000000000e+00  -1.1690064971969305e-02 2.7897112742654891e-02 0.0000000000000000e+00  -1.1504708515623322e-02 2.9060687059286772e-02 0.0000000000000000e+00  -1.1266370978646939e-02 3.0230981981405614e-02 0.0000000000000000e+00  -1.0974164357534325e-02 3.1403819407126055e-02 0.0000000000000000e+00  -1.0627424975926831e-02 3.2574966633896286e-02 0.0000000000000000e+00  -1.0225777610004519e-02 3.3739913723995721e-02 0.0000000000000000e+00  -9.7690634439030304e-03 3.4894065462966486e-02 0.0000000000000000e+00  -9.2574574643571137e-03 3.6032627003424321e-02 0.0000000000000000e+00  -8.6913966104951099e-03 3.7150806421261361e-02 0.0000000000000000e+00  -8.0716638972728565e-03 3.8243742143887739e-02 0.0000000000000000e+00  -7.3993208806512577e-03 3.9306604269370195e-02 0.0000000000000000e+00  -6.6757999472795947e-03 4.0334532566679876e-02 0.0000000000000000e+00  -5.9027945506760614e-03 4.1322778588965998e-02 0.0000000000000000e+00  -5.0823765551829729e-03 4.2266756740196462e-02 0.0000000000000000e+00  -4.2168637627291632e-03 4.3161980176764266e-02 0.0000000000000000e+00  -3.3088953112164342e-03 4.4004300907929991e-02 0.0000000000000000e+00  -2.3613993827542876e-03 4.4789731757279516e-02 0.0000000000000000e+00  -1.3775622585552926e-03 4.5514615539415659e-02 0.0000000000000000e+00  -5.0018564440487744e-04 4.7226549972822669e-02 0.0000000000000000e+00  -6.4057733699595483e-04 4.8315494336731955e-02 0.0000000000000000e+00  -7.8068621608266625e-04 4.9443032631683058e-02 0.0000000000000000e+00  -9.1914587058046819e-04 5.0609552576892897e-02 0.0000000000000000e+00  -1.0544593760734987e-03 5.1815370030358361e-02 0.0000000000000000e+00  -1.1849968239962948e-03 5.3060519448089316e-02 0.0000000000000000e+00  -1.3090824192814967e-03 5.4344839347031285e-02 0.0000000000000000e+00  -1.4248693971668912e-03 5.5668146769116959e-02 0.0000000000000000e+00  -1.5306013359115136e-03 5.7029678287017736e-02 0.0000000000000000e+00  -1.6244049779508675e-03 5.8428559356753708e-02 0.0000000000000000e+00  -1.7045148817714886e-03 5.9863638716146729e-02 0.0000000000000000e+00  -1.7692983823591577e-03 6.1333315182083750e-02 0.0000000000000000e+00  -1.8172559252415854e-03 6.2835759721598550e-02 0.0000000000000000e+00  -1.8471675492893814e-03 6.4368580961701810e-02 0.0000000000000000e+00  -1.8581343377808575e-03 6.5929127275640043e-02 0.0000000000000000e+00  -1.8496216436982888e-03 6.7514273767627475e-02 0.0000000000000000e+00  -1.8215681230122035e-03 6.9120489567122356e-02 0.0000000000000000e+00  -1.7744757715560521e-03 7.0743808592637292e-02 0.0000000000000000e+00  -1.7093769694685988e-03 7.2379747382010196e-02 0.0000000000000000e+00  -1.6279047704576212e-03 7.4023459615930626e-02 0.0000000000000000e+00  -1.5323656476787461e-03 7.5669824122543319e-02 0.0000000000000000e+00  -1.4256323262671461e-03 7.7313112059651093e-02 0.0000000000000000e+00  -1.3111689367389465e-03 7.8947400032742532e-02 0.0000000000000000e+00  -1.1929072559306246e-03 8.0566321320715756e-02 0.0000000000000000e+00  -1.0751764981179509e-03 8.2163476561305474e-02 0.0000000000000000e+00  -9.6254176088293676e-04 8.3732059878024109e-02 0.0000000000000000e+00  -8.5966471416174775e-04 8.5265206219507950e-02 0.0000000000000000e+00  -7.7113772256311641e-04 8.6755893790032110e-02 0.0000000000000000e+00  -7.0117960458356877e-04 8.8197333181271792e-02 0.0000000000000000e+00  -6.5368971889373723e-04 8.9582519083673859e-02 0.0000000000000000e+00  -6.3173498255057205e-04 9.0904735913205983e-02 0.0000000000000000e+00  -6.3763036350667260e-04 9.2157467644452359e-02 0.0000000000000000e+00  -6.7270412823717542e-04 9.3334490704437889e-02 0.0000000000000000e+00  -7.3726326938714090e-04 9.4429872486426855e-02 0.0000000000000000e+00  -8.3041792082539669e-04 9.5438219765729373e-02 0.0000000000000000e+00  -9.5027918882647046e-04 9.6354413665579924e-02 0.0000000000000000e+00  -1.0937026599602735e-03 9.7173968104324299e-02 0.0000000000000000e+00  -1.2567788735433770e-03 9.7892929100225734e-02 0.0000000000000000e+00  -1.4347087987938100e-03 9.8507887881189402e-02 0.0000000000000000e+00  -1.6220038981042113e-03 9.9015974492571643e-02 0.0000000000000000e+00  -1.8129060729991440e-03 9.9415049200589370e-02 0.0000000000000000e+00  -2.0014467903280700e-03 9.9703543069741052e-02 0.0000000000000000e+00  -2.1815515183098871e-03 9.9880393375857746e-02 0.0000000000000000e+00  -2.3476227168580796e-03 9.9945285584490701e-02 0.0000000000000000e+00  -2.4944748151055009e-03 9.9898490729941794e-02 0.0000000000000000e+00  -2.6175833512647722e-03 9.9740834895230737e-02 0.0000000000000000e+00  -2.7131913321331359e-03 9.9473685453033575e-02 0.0000000000000000e+00  -2.7785143844198138e-03 9.9099039632476071e-02 0.0000000000000000e+00  -2.8117449307096479e-03 9.8619411477256808e-02 0.0000000000000000e+00  -2.8118907452473890e-03 9.8037783090861308e-02 0.0000000000000000e+00  -2.7790470727734793e-03 9.7357565967201867e-02 0.0000000000000000e+00  -2.7143070071970897e-03 9.6582728499382250e-02 0.0000000000000000e+00  -2.6194299832862826e-03 9.5717588103851559e-02 0.0000000000000000e+00  -2.4968333740821628e-03 9.4766783567040741e-02 0.0000000000000000e+00  -2.3495894771826740e-03 9.3735252086099063e-02 0.0000000000000000e+00  -2.1813093934681120e-03 9.2628275833106219e-02 0.0000000000000000e+00  -1.9958805055310461e-03 9.1451396970855914e-02 0.0000000000000000e+00  -1.7974387819019685e-03 9.0210215260297058e-02 0.0000000000000000e+00  -1.5900737122818652e-03 8.8910608220082066e-02 0.0000000000000000e+00  -1.3779171297147652e-03 8.7558420086159258e-02 0.0000000000000000e+00  -1.1648146366972398e-03 8.6159553328304023e-02 0.0000000000000000e+00  -9.5460621694521460e-04 8.4719903554574372e-02 0.0000000000000000e+00  -7.5065310892870427e-04 8.3245352292509359e-02 0.0000000000000000e+00  -5.5599585114546671e-04 8.1741580481286422e-02 0.0000000000000000e+00  -3.7336766889907008e-04 8.0214301130626789e-02 0.0000000000000000e+00  -2.0494456816136215e-04 7.8668860447865488e-02 0.0000000000000000e+00  -5.2521362416106234e-05 7.7110461697657215e-02 0.0000000000000000e+00  8.2517054385905091e-05 7.5544147048406604e-02 0.0000000000000000e+00  1.9915641709204436e-04 7.3974597369913436e-02 0.0000000000000000e+00  2.9681538262630219e-04 7.2406316632442347e-02 0.0000000000000000e+00  3.7529737449675280e-04 7.0843349395398603e-02 0.0000000000000000e+00  4.3460388817743957e-04 6.9289698227827504e-02 0.0000000000000000e+00  4.7516845217652852e-04 6.7748750267557528e-02 0.0000000000000000e+00  4.9770603413388733e-04 6.6223847024562910e-02 0.0000000000000000e+00  5.0302166065629679e-04 6.4717828231772939e-02 0.0000000000000000e+00  4.9208747084393751e-04 6.3233380822127677e-02 0.0000000000000000e+00  4.6620014128404485e-04 6.1772715800472847e-02 0.0000000000000000e+00  4.2642269181928570e-04 6.0337973174978840e-02 0.0000000000000000e+00  3.7420402933513588e-04 5.8930848484777872e-02 0.0000000000000000e+00  3.1091514665402837e-04 5.7552779517756641e-02 0.0000000000000000e+00  2.3789802837591317e-04 5.6205060513050228e-02 0.0000000000000000e+00  1.5651812733044734e-04 5.4888684700144519e-02 0.0000000000000000e+00  6.8133677004004621e-05 5.3604404156455052e-02 0.0000000000000000e+00  -2.5948177468919636e-05 5.2352852788462322e-02 0.0000000000000000e+00  -1.2454425164903565e-04 5.1134393723081116e-02 0.0000000000000000e+00  -2.2643544367256769e-04 4.9949318178979102e-02 0.0000000000000000e+00  -3.3050497117665729e-04 4.8797655126725757e-02 0.0000000000000000e+00  -4.3578656636955436e-04 4.7679421657464777e-02 0.0000000000000000e+00  -5.4133117442931272e-04 4.6594404406549564e-02 0.0000000000000000e+00  -6.4629496245472969e-04 4.5542373530367157e-02 0.0000000000000000e+00  -7.4987794943214925e-04 4.4522963056598336e-02 0.0000000000000000e+00  -8.5139749625072513e-04 4.3535725457833852e-02 0.0000000000000000e+00  -9.5025318893535052e-04 4.2580191164246696e-02 0.0000000000000000e+00  -1.0459281816308599e-03 4.1655793445007520e-02 0.0000000000000000e+00  -1.1378921024699116e-03 4.0761915536388353e-02 0.0000000000000000e+00  -1.2258157910419066e-03 3.9897952430235868e-02 0.0000000000000000e+00  -1.3093383014718130e-03 3.9063230386009930e-02 0.0000000000000000e+00  -1.3881558293573474e-03 3.8257052065200289e-02 0.0000000000000000e+00  -1.4620817200423492e-03 3.7478730524456161e-02 0.0000000000000000e+00  -8.0237008540079077e-04 3.6314308719936537e-02 0.0000000000000000e+00  -9.3727977899231690e-05 3.5860012249817143e-02 0.0000000000000000e+00  5.9313128447647232e-04 3.5366255413190294e-02 0.0000000000000000e+00  1.2563026105782077e-03 3.4834784161656321e-02 0.0000000000000000e+00  1.8940632961219944e-03 3.4267499919601895e-02 0.0000000000000000e+00  2.5047326658949433e-03 3.3666499582808179e-02 0.0000000000000000e+00  3.0867997916040335e-03 3.3033971716279364e-02 0.0000000000000000e+00  3.6388279912947285e-03 3.2372300910626109e-02 0.0000000000000000e+00  4.1595456204157428e-03 3.1683916901830117e-02 0.0000000000000000e+00  4.6478399628150360e-03 3.0971384350740597e-02 0.0000000000000000e+00  5.1027079357162056e-03 3.0237355961006410e-02 0.0000000000000000e+00  5.5233063879493718e-03 2.9484515794029748e-02 0.0000000000000000e+00  5.9089545639142496e-03 2.8715610505410671e-02 0.0000000000000000e+00  6.2591047900556101e-03 2.7933415902179508e-02 0.0000000000000000e+00  6.5734065066512274e-03 2.7140689146795422e-02 0.0000000000000000e+00  6.8516139051491912e-03 2.6340206930157335e-02 0.0000000000000000e+00  7.0936522471776167e-03 2.5534720574689525e-02 0.0000000000000000e+00  7.2995995107269264e-03 2.4726935882582977e-02 0.0000000000000000e+00  7.4696493702223858e-03 2.3919481655211079e-02 0.0000000000000000e+00  7.6041386151688038e-03 2.3114958790708982e-02 0.0000000000000000e+00  7.7035344027158621e-03 2.2315888465810698e-02 0.0000000000000000e+00  7.7684157255670239e-03 2.1524672828867514e-02 0.0000000000000000e+00  7.7994766814836122e-03 2.0743655415071127e-02 0.0000000000000000e+00  7.7975108528750905e-03 1.9975040325970733e-02 0.0000000000000000e+00  7.7634015850085898e-03 1.9220950792504278e-02 0.0000000000000000e+00  7.6980978866818296e-03 1.8483390548083633e-02 0.0000000000000000e+00  7.6026560996922234e-03 1.7764236752728747e-02 0.0000000000000000e+00  7.4781655349622778e-03 1.7065237567330253e-02 0.0000000000000000e+00  7.3257897076093991e-03 1.6388084528893124e-02 0.0000000000000000e+00  7.1467271614574727e-03 1.5734268821347833e-02 0.0000000000000000e+00  6.9422138898753826e-03 1.5105201139936368e-02 0.0000000000000000e+00  6.7135345989351169e-03 1.4502192476067988e-02 0.0000000000000000e+00  6.4619699322608342e-03 1.3926422587059489e-02 0.0000000000000000e+00  6.1888348202758436e-03 1.3378963628869816e-02 0.0000000000000000e+00  5.8954537153974333e-03 1.2860806030059353e-02 0.0000000000000000e+00  5.5831575578061138e-03 1.2372818979443329e-02 0.0000000000000000e+00  5.2532673206157907e-03 1.1915795807940993e-02 0.0000000000000000e+00  4.9071160710045872e-03 1.1490432270483866e-02 0.0000000000000000e+00  4.5460245185099512e-03 1.1097356072281591e-02 0.0000000000000000e+00  4.1713070876858160e-03 1.0737097849893708e-02 0.0000000000000000e+00  3.7842628550309172e-03 1.0410151273908833e-02 0.0000000000000000e+00  3.3861787166534624e-03 1.0116938448045912e-02 0.0000000000000000e+00  2.9783408629465852e-03 9.8577734181501328e-03 0.0000000000000000e+00  2.5620276571116161e-03 9.6329771352811466e-03 0.0000000000000000e+00  2.1384823632133341e-03 9.4428020898781658e-03 0.0000000000000000e+00  1.7089589613175375e-03 9.2874397656363232e-03 0.0000000000000000e+00  1.2746923137237406e-03 9.1670511667001856e-03 0.0000000000000000e+00  8.3691989044749622e-04 9.0817756676575667e-03 0.0000000000000000e+00  3.9684763380561501e-04 9.0316816039231525e-03 0.0000000000000000e+00  -4.4287456135194446e-05 9.0168105116323078e-03 0.0000000000000000e+00  -4.8527420074177650e-04 9.0371778611489841e-03 0.0000000000000000e+00  -9.2489371050247314e-04 9.0927699242537470e-03 0.0000000000000000e+00  -1.3619300772285212e-03 9.1835257243413782e-03 0.0000000000000000e+00  -1.7951536612977044e-03 9.3093381005505058e-03 0.0000000000000000e+00  -2.2233434204538098e-03 9.4700690602939498e-03 0.0000000000000000e+00  -2.6452550138584660e-03 9.6655444821484339e-03 0.0000000000000000e+00  -3.0596394429495710e-03 9.8955563687928173e-03 0.0000000000000000e+00  -3.4652424271359142e-03 1.0159845337722845e-02 0.0000000000000000e+00  -3.8607940327271225e-03 1.0458092143223439e-02 0.0000000000000000e+00  -4.2450176408150436e-03 1.0789928032604880e-02 0.0000000000000000e+00  -4.6166213145888511e-03 1.1154911481814736e-02 0.0000000000000000e+00  -4.9743042318609147e-03 1.1552558323887291e-02 0.0000000000000000e+00  -5.3167558742915942e-03 1.1982304205287080e-02 0.0000000000000000e+00  -5.6426596882367796e-03 1.2443500679708815e-02 0.0000000000000000e+00  -5.9506905127377488e-03 1.2935443731582574e-02 0.0000000000000000e+00  -6.2395389587181242e-03 1.3457316919276352e-02 0.0000000000000000e+00  -6.5078753814234473e-03 1.4008192292295097e-02 0.0000000000000000e+00  -6.7543920386825430e-03 1.4587087146531594e-02 0.0000000000000000e+00  -6.9777869965317605e-03 1.5192909248303962e-02 0.0000000000000000e+00  -7.1767836842300380e-03 1.5824436799411264e-02 0.0000000000000000e+00  -7.3501274273301605e-03 1.6480342337125423e-02 0.0000000000000000e+00  -7.4965952215803348e-03 1.7159239123945593e-02 0.0000000000000000e+00  -7.6150043241830917e-03 1.7859526166672093e-02 0.0000000000000000e+00  -7.7042263105957425e-03 1.8579553943661519e-02 0.0000000000000000e+00  -7.7631859949853343e-03 1.9317541323780170e-02 0.0000000000000000e+00  -7.7908708764207069e-03 2.0071583941710595e-02 0.00000