<?xml version="1.0"?>
<VTKFile type="UnstructuredGrid"  version="0.1"  >
<UnstructuredGrid>
<Piece  NumberOfPoints="16275" NumberOfCells="32468">
<Points>
<DataArray  type="Float64"  NumberOfComponents="3"  format="ascii">-0.5 0.5 0  0.5 0.5 0  0.5 -0.5 0  -0.5 -0.5 0  -1 1 0  1 1 0  1 -1 0  -1 -1 0  -0.4900000000000277 0.5 0  -0.4800000000000555 0.5 0  -0.4700000000000832 0.5 0  -0.4600000000001109 0.5 0  -0.4500000000001387 0.5 0  -0.4400000000001664 0.5 0  -0.4300000000001942 0.5 0  -0.4200000000002219 0.5 0  -0.4100000000002497 0.5 0  -0.4000000000002774 0.5 0  -0.3900000000003052 0.5 0  -0.3800000000003328 0.5 0  -0.3700000000003606 0.5 0  -0.3600000000003883 0.5 0  -0.3500000000004161 0.5 0  -0.3400000000004438 0.5 0  -0.3300000000004716 0.5 0  -0.3200000000004993 0.5 0  -0.3100000000005271 0.5 0  -0.3000000000005548 0.5 0  -0.2900000000005825 0.5 0  -0.2800000000006103 0.5 0  -0.2700000000006381 0.5 0  -0.2600000000006658 0.5 0  -0.2500000000006935 0.5 0  -0.2400000000007212 0.5 0  -0.230000000000749 0.5 0  -0.2200000000007767 0.5 0  -0.2100000000008044 0.5 0  -0.2000000000008322 0.5 0  -0.19000000000086 0.5 0  -0.1800000000008877 0.5 0  -0.1700000000009154 0.5 0  -0.1600000000009431 0.5 0  -0.1500000000009709 0.5 0  -0.1400000000009986 0.5 0  -0.1300000000010264 0.5 0  -0.1200000000010541 0.5 0  -0.1100000000010818 0.5 0  -0.1000000000011096 0.5 0  -0.09000000000113734 0.5 0  -0.08000000000116503 0.5 0  -0.07000000000119283 0.5 0  -0.06000000000122058 0.5 0  -0.05000000000124827 0.5 0  -0.04000000000127607 0.5 0  -0.03000000000130376 0.5 0  -0.02000000000133151 0.5 0  -0.01000000000135925 0.5 0  -1.376121439022882e-12 0.5 0  0.009999999998640763 0.5 0  0.01999999999866864 0.5 0  0.02999999999869629 0.5 0  0.03999999999872406 0.5 0  0.04999999999875182 0.5 0  0.05999999999877947 0.5 0  0.06999999999880724 0.5 0  0.079999999998835 0.5 0  0.08999999999886266 0.5 0  0.09999999999889042 0.5 0  0.1099999999989182 0.5 0  0.1199999999989459 0.5 0  0.1299999999989737 0.5 0  0.1399999999990014 0.5 0  0.1499999999990291 0.5 0  0.1599999999990568 0.5 0  0.1699999999990847 0.5 0  0.1799999999991124 0.5 0  0.1899999999991401 0.5 0  0.1999999999991678 0.5 0  0.2099999999991955 0.5 0  0.2199999999992234 0.5 0  0.2299999999992511 0.5 0  0.2399999999992788 0.5 0  0.2499999999993066 0.5 0  0.2599999999993342 0.5 0  0.269999999999362 0.5 0  0.2799999999993897 0.5 0  0.2899999999994175 0.5 0  0.2999999999994452 0.5 0  0.3099999999994729 0.5 0  0.3199999999995007 0.5 0  0.3299999999995284 0.5 0  0.3399999999995562 0.5 0  0.3499999999995839 0.5 0  0.3599999999996116 0.5 0  0.3699999999996393 0.5 0  0.379999999999667 0.5 0  0.3899999999996949 0.5 0  0.3999999999997226 0.5 0  0.4099999999997503 0.5 0  0.419999999999778 0.5 0  0.4299999999998058 0.5 0  0.4399999999998336 0.5 0  0.4499999999998613 0.5 0  0.4599999999998891 0.5 0  0.4699999999999167 0.5 0  0.4799999999999445 0.5 0  0.4899999999999722 0.5 0  0.5 0.4900000000000277 0  0.5 0.4800000000000555 0  0.5 0.4700000000000832 0  0.5 0.4600000000001109 0  0.5 0.4500000000001387 0  0.5 0.4400000000001664 0  0.5 0.4300000000001942 0  0.5 0.4200000000002219 0  0.5 0.4100000000002497 0  0.5 0.4000000000002774 0  0.5 0.3900000000003052 0  0.5 0.3800000000003328 0  0.5 0.3700000000003606 0  0.5 0.3600000000003883 0  0.5 0.3500000000004161 0  0.5 0.3400000000004438 0  0.5 0.3300000000004716 0  0.5 0.3200000000004993 0  0.5 0.3100000000005271 0  0.5 0.3000000000005548 0  0.5 0.2900000000005825 0  0.5 0.2800000000006103 0  0.5 0.2700000000006381 0  0.5 0.2600000000006658 0  0.5 0.2500000000006935 0  0.5 0.2400000000007212 0  0.5 0.230000000000749 0  0.5 0.2200000000007767 0  0.5 0.2100000000008044 0  0.5 0.2000000000008322 0  0.5 0.19000000000086 0  0.5 0.1800000000008877 0  0.5 0.1700000000009154 0  0.5 0.1600000000009431 0  0.5 0.1500000000009709 0  0.5 0.1400000000009986 0  0.5 0.1300000000010264 0  0.5 0.1200000000010541 0  0.5 0.1100000000010818 0  0.5 0.1000000000011096 0  0.5 0.09000000000113734 0  0.5 0.08000000000116503 0  0.5 0.07000000000119283 0  0.5 0.06000000000122058 0  0.5 0.05000000000124827 0  0.5 0.04000000000127607 0  0.5 0.03000000000130376 0  0.5 0.02000000000133151 0  0.5 0.01000000000135925 0  0.5 1.376121439022882e-12 0  0.5 -0.009999999998640763 0  0.5 -0.01999999999866864 0  0.5 -0.02999999999869629 0  0.5 -0.03999999999872406 0  0.5 -0.04999999999875182 0  0.5 -0.05999999999877947 0  0.5 -0.06999999999880724 0  0.5 -0.079999999998835 0  0.5 -0.08999999999886266 0  0.5 -0.09999999999889042 0  0.5 -0.1099999999989182 0  0.5 -0.1199999999989459 0  0.5 -0.1299999999989737 0  0.5 -0.1399999999990014 0  0.5 -0.1499999999990291 0  0.5 -0.1599999999990568 0  0.5 -0.1699999999990847 0  0.5 -0.1799999999991124 0  0.5 -0.1899999999991401 0  0.5 -0.1999999999991678 0  0.5 -0.2099999999991955 0  0.5 -0.2199999999992234 0  0.5 -0.2299999999992511 0  0.5 -0.2399999999992788 0  0.5 -0.2499999999993066 0  0.5 -0.2599999999993342 0  0.5 -0.269999999999362 0  0.5 -0.2799999999993897 0  0.5 -0.2899999999994175 0  0.5 -0.2999999999994452 0  0.5 -0.3099999999994729 0  0.5 -0.3199999999995007 0  0.5 -0.3299999999995284 0  0.5 -0.3399999999995562 0  0.5 -0.3499999999995839 0  0.5 -0.3599999999996116 0  0.5 -0.3699999999996393 0  0.5 -0.379999999999667 0  0.5 -0.3899999999996949 0  0.5 -0.3999999999997226 0  0.5 -0.4099999999997503 0  0.5 -0.419999999999778 0  0.5 -0.4299999999998058 0  0.5 -0.4399999999998336 0  0.5 -0.4499999999998613 0  0.5 -0.4599999999998891 0  0.5 -0.4699999999999167 0  0.5 -0.4799999999999445 0  0.5 -0.4899999999999722 0  0.4900000000000277 -0.5 0  0.4800000000000555 -0.5 0  0.4700000000000832 -0.5 0  0.4600000000001109 -0.5 0  0.4500000000001387 -0.5 0  0.4400000000001664 -0.5 0  0.4300000000001942 -0.5 0  0.4200000000002219 -0.5 0  0.4100000000002497 -0.5 0  0.4000000000002774 -0.5 0  0.3900000000003052 -0.5 0  0.3800000000003328 -0.5 0  0.3700000000003606 -0.5 0  0.3600000000003883 -0.5 0  0.3500000000004161 -0.5 0  0.3400000000004438 -0.5 0  0.3300000000004716 -0.5 0  0.3200000000004993 -0.5 0  0.3100000000005271 -0.5 0  0.3000000000005548 -0.5 0  0.2900000000005825 -0.5 0  0.2800000000006103 -0.5 0  0.2700000000006381 -0.5 0  0.2600000000006658 -0.5 0  0.2500000000006935 -0.5 0  0.2400000000007212 -0.5 0  0.230000000000749 -0.5 0  0.2200000000007767 -0.5 0  0.2100000000008044 -0.5 0  0.2000000000008322 -0.5 0  0.19000000000086 -0.5 0  0.1800000000008877 -0.5 0  0.1700000000009154 -0.5 0  0.1600000000009431 -0.5 0  0.1500000000009709 -0.5 0  0.1400000000009986 -0.5 0  0.1300000000010264 -0.5 0  0.1200000000010541 -0.5 0  0.1100000000010818 -0.5 0  0.1000000000011096 -0.5 0  0.09000000000113734 -0.5 0  0.08000000000116503 -0.5 0  0.07000000000119283 -0.5 0  0.06000000000122058 -0.5 0  0.05000000000124827 -0.5 0  0.04000000000127607 -0.5 0  0.03000000000130376 -0.5 0  0.02000000000133151 -0.5 0  0.01000000000135925 -0.5 0  1.376121439022882e-12 -0.5 0  -0.009999999998640763 -0.5 0  -0.01999999999866864 -0.5 0  -0.02999999999869629 -0.5 0  -0.03999999999872406 -0.5 0  -0.04999999999875182 -0.5 0  -0.05999999999877947 -0.5 0  -0.06999999999880724 -0.5 0  -0.079999999998835 -0.5 0  -0.08999999999886266 -0.5 0  -0.09999999999889042 -0.5 0  -0.1099999999989182 -0.5 0  -0.1199999999989459 -0.5 0  -0.1299999999989737 -0.5 0  -0.1399999999990014 -0.5 0  -0.1499999999990291 -0.5 0  -0.1599999999990568 -0.5 0  -0.1699999999990847 -0.5 0  -0.1799999999991124 -0.5 0  -0.1899999999991401 -0.5 0  -0.1999999999991678 -0.5 0  -0.2099999999991955 -0.5 0  -0.2199999999992234 -0.5 0  -0.2299999999992511 -0.5 0  -0.2399999999992788 -0.5 0  -0.2499999999993066 -0.5 0  -0.2599999999993342 -0.5 0  -0.269999999999362 -0.5 0  -0.2799999999993897 -0.5 0  -0.2899999999994175 -0.5 0  -0.2999999999994452 -0.5 0  -0.3099999999994729 -0.5 0  -0.3199999999995007 -0.5 0  -0.3299999999995284 -0.5 0  -0.3399999999995562 -0.5 0  -0.3499999999995839 -0.5 0  -0.3599999999996116 -0.5 0  -0.3699999999996393 -0.5 0  -0.379999999999667 -0.5 0  -0.3899999999996949 -0.5 0  -0.3999999999997226 -0.5 0  -0.4099999999997503 -0.5 0  -0.419999999999778 -0.5 0  -0.4299999999998058 -0.5 0  -0.4399999999998336 -0.5 0  -0.4499999999998613 -0.5 0  -0.4599999999998891 -0.5 0  -0.4699999999999167 -0.5 0  -0.4799999999999445 -0.5 0  -0.4899999999999722 -0.5 0  -0.5 -0.4900000000000277 0  -0.5 -0.4800000000000555 0  -0.5 -0.4700000000000832 0  -0.5 -0.4600000000001109 0  -0.5 -0.4500000000001387 0  -0.5 -0.4400000000001664 0  -0.5 -0.4300000000001942 0  -0.5 -0.4200000000002219 0  -0.5 -0.4100000000002497 0  -0.5 -0.4000000000002774 0  -0.5 -0.3900000000003052 0  -0.5 -0.3800000000003328 0  -0.5 -0.3700000000003606 0  -0.5 -0.3600000000003883 0  -0.5 -0.3500000000004161 0  -0.5 -0.3400000000004438 0  -0.5 -0.3300000000004716 0  -0.5 -0.3200000000004993 0  -0.5 -0.3100000000005271 0  -0.5 -0.3000000000005548 0  -0.5 -0.2900000000005825 0  -0.5 -0.2800000000006103 0  -0.5 -0.2700000000006381 0  -0.5 -0.2600000000006658 0  -0.5 -0.2500000000006935 0  -0.5 -0.2400000000007212 0  -0.5 -0.230000000000749 0  -0.5 -0.2200000000007767 0  -0.5 -0.2100000000008044 0  -0.5 -0.2000000000008322 0  -0.5 -0.19000000000086 0  -0.5 -0.1800000000008877 0  -0.5 -0.1700000000009154 0  -0.5 -0.1600000000009431 0  -0.5 -0.1500000000009709 0  -0.5 -0.1400000000009986 0  -0.5 -0.1300000000010264 0  -0.5 -0.1200000000010541 0  -0.5 -0.1100000000010818 0  -0.5 -0.1000000000011096 0  -0.5 -0.09000000000113734 0  -0.5 -0.08000000000116503 0  -0.5 -0.07000000000119283 0  -0.5 -0.06000000000122058 0  -0.5 -0.05000000000124827 0  -0.5 -0.04000000000127607 0  -0.5 -0.03000000000130376 0  -0.5 -0.02000000000133151 0  -0.5 -0.01000000000135925 0  -0.5 -1.376121439022882e-12 0  -0.5 0.009999999998640763 0  -0.5 0.01999999999866864 0  -0.5 0.02999999999869629 0  -0.5 0.03999999999872406 0  -0.5 0.04999999999875182 0  -0.5 0.05999999999877947 0  -0.5 0.06999999999880724 0  -0.5 0.079999999998835 0  -0.5 0.08999999999886266 0  -0.5 0.09999999999889042
[...]
<PointData  Vectors="f_27-0"> 
<DataArray  type="Float64"  Name="f_27-0"  NumberOfComponents="3" format="ascii">7.0040204431726452e-04 4.4125992704906684e-02 0.0000000000000000e+00  -1.0266735030443680e-03 4.4074066002113110e-02 0.0000000000000000e+00  2.9228087850488674e-04 4.1177967043963579e-02 0.0000000000000000e+00  -9.5425497395860748e-05 4.1141541927358034e-02 0.0000000000000000e+00  -1.6182952034952938e-03 6.5658510465631996e-03 0.0000000000000000e+00  1.6524036584391133e-03 6.4833999165264354e-03 0.0000000000000000e+00  -1.3890591876972722e-03 6.6038664750545841e-03 0.0000000000000000e+00  1.4837341615358620e-03 6.4544746241404121e-03 0.0000000000000000e+00  1.7700032742272785e-03 4.3494749687496566e-02 0.0000000000000000e+00  2.8044294262092326e-03 4.2799553383865319e-02 0.0000000000000000e+00  3.7998317392666748e-03 4.2044184759069174e-02 0.0000000000000000e+00  4.7533745356955724e-03 4.1231978709201360e-02 0.0000000000000000e+00  5.6604697101706623e-03 4.0367118755745030e-02 0.0000000000000000e+00  6.5196884563496890e-03 3.9453120619837155e-02 0.0000000000000000e+00  7.3269378383364068e-03 3.8495538501902557e-02 0.0000000000000000e+00  8.0812416711273909e-03 3.7498432392830988e-02 0.0000000000000000e+00  8.7798216026709879e-03 3.6466548272285300e-02 0.0000000000000000e+00  9.4207008336799486e-03 3.5404602091597508e-02 0.0000000000000000e+00  1.0004152798669201e-02 3.4318206117066978e-02 0.0000000000000000e+00  1.0528848872580014e-02 3.3211717783193026e-02 0.0000000000000000e+00  1.0994276024595741e-02 3.2090190518679909e-02 0.0000000000000000e+00  1.1401050631240887e-02 3.0957402755345340e-02 0.0000000000000000e+00  1.1748271590775995e-02 2.9820051624257174e-02 0.0000000000000000e+00  1.2037907999167563e-02 2.8681085334419199e-02 0.0000000000000000e+00  1.2270447647561114e-02 2.7544457148865269e-02 0.0000000000000000e+00  1.2446809006285114e-02 2.6415461899672910e-02 0.0000000000000000e+00  1.2568769298746129e-02 2.5297930567614504e-02 0.0000000000000000e+00  1.2638035322852879e-02 2.4194308748105114e-02 0.0000000000000000e+00  1.2656018556491445e-02 2.3108574391480691e-02 0.0000000000000000e+00  1.2625052631873629e-02 2.2043381495112330e-02 0.0000000000000000e+00  1.2547112361586782e-02 2.1001379305751140e-02 0.0000000000000000e+00  1.2423944658015409e-02 1.9986454512629342e-02 0.0000000000000000e+00  1.2257947616502720e-02 1.8999641822750154e-02 0.0000000000000000e+00  1.2051765581360892e-02 1.8043186332467914e-02 0.0000000000000000e+00  1.1806972743642695e-02 1.7119033855504014e-02 0.0000000000000000e+00  1.1526159532340470e-02 1.6229156443669082e-02 0.0000000000000000e+00  1.1211554954942912e-02 1.5373434057514977e-02 0.0000000000000000e+00  1.0865515356357096e-02 1.4554462563787155e-02 0.0000000000000000e+00  1.0489745863006392e-02 1.3772623845324735e-02 0.0000000000000000e+00  1.0086824863844058e-02 1.3028810369020016e-02 0.0000000000000000e+00  9.6584643369355249e-03 1.2324326557333565e-02 0.0000000000000000e+00  9.2069230931311249e-03 1.1658948982244097e-02 0.0000000000000000e+00  8.7335790419342755e-03 1.1032976136954980e-02 0.0000000000000000e+00  8.2405359607389261e-03 1.0446120769588282e-02 0.0000000000000000e+00  7.7298470840186139e-03 9.9006005597946142e-03 0.0000000000000000e+00  7.2023316236977941e-03 9.3949021834849756e-03 0.0000000000000000e+00  6.6603976631091945e-03 8.9289218155342368e-03 0.0000000000000000e+00  6.1050541380313723e-03 8.5041142140565296e-03 0.0000000000000000e+00  5.5385063042257526e-03 8.1195189352102678e-03 0.0000000000000000e+00  4.9615348995410155e-03 7.7748297562287233e-03 0.0000000000000000e+00  4.3750986338758130e-03 7.4707746776569569e-03 0.0000000000000000e+00  3.7809140460864019e-03 7.2064987208486841e-03 0.0000000000000000e+00  3.1798977709248774e-03 6.9826873118289945e-03 0.0000000000000000e+00  2.5732089001422810e-03 6.7981620980851120e-03 0.0000000000000000e+00  1.9625029425914520e-03 6.6540689756272690e-03 0.0000000000000000e+00  1.3483157173041686e-03 6.5494394442764184e-03 0.0000000000000000e+00  7.3251717669381596e-04 6.4843984565905802e-03 0.0000000000000000e+00  1.1460384391639102e-04 6.4597340474833809e-03 0.0000000000000000e+00  -5.0326604781468606e-04 6.4743053217177935e-03 0.0000000000000000e+00  -1.1199054809966321e-03 6.5279632452883212e-03 0.0000000000000000e+00  -1.7347315189832021e-03 6.6213606159089113e-03 0.0000000000000000e+00  -2.3464970579337042e-03 6.7549034411126113e-03 0.0000000000000000e+00  -2.9543653646989607e-03 6.9285237498915228e-03 0.0000000000000000e+00  -3.5569698524719234e-03 7.1417334872685562e-03 0.0000000000000000e+00  -4.1533417326825584e-03 7.3948278074153278e-03 0.0000000000000000e+00  -4.7419920055760765e-03 7.6879854530108108e-03 0.0000000000000000e+00  -5.3223841809546283e-03 8.0218030638027210e-03 0.0000000000000000e+00  -5.8928494687295599e-03 8.3951634929655024e-03 0.0000000000000000e+00  -6.4516924702440661e-03 8.8093518791111415e-03 0.0000000000000000e+00  -6.9982434862509799e-03 9.2635907383315785e-03 0.0000000000000000e+00  -7.5304963659869883e-03 9.7577920971896933e-03 0.0000000000000000e+00  -8.0468418660911076e-03 1.0292415969010028e-02 0.0000000000000000e+00  -8.5461605646067144e-03 1.0867188271809455e-02 0.0000000000000000e+00  -9.0261769982181821e-03 1.1481673986941861e-02 0.0000000000000000e+00  -9.4856688206539936e-03 1.2136182136891150e-02 0.0000000000000000e+00  -9.9220783839527801e-03 1.2830223861222631e-02 0.0000000000000000e+00  -1.0334449647749310e-02 1.3562684680652139e-02 0.0000000000000000e+00  -1.0719600296163621e-02 1.4333739788186785e-02 0.0000000000000000e+00  -1.1076171473266753e-02 1.5143278216563145e-02 0.0000000000000000e+00  -1.1402508555386527e-02 1.5988265525837025e-02 0.0000000000000000e+00  -1.1695524605955300e-02 1.6868268186208055e-02 0.0000000000000000e+00  -1.1953822261046002e-02 1.7783254602147497e-02 0.0000000000000000e+00  -1.2173997425894161e-02 1.8731435089191950e-02 0.0000000000000000e+00  -1.2355747311113817e-02 1.9710790848935702e-02 0.0000000000000000e+00  -1.2494641966211095e-02 2.0719621215207318e-02 0.0000000000000000e+00  -1.2589765634644199e-02 2.1754242941905238e-02 0.0000000000000000e+00  -1.2638384802526475e-02 2.2814393084523137e-02 0.0000000000000000e+00  -1.2638647446043457e-02 2.3896575483402814e-02 0.0000000000000000e+00  -1.2588719464897641e-02 2.4997682982095704e-02 0.0000000000000000e+00  -1.2486285751350371e-02 2.6114113494802978e-02 0.0000000000000000e+00  -1.2329878766454602e-02 2.7243101209410980e-02 0.0000000000000000e+00  -1.2117538726686583e-02 2.8381612893469663e-02 0.0000000000000000e+00  -1.1848966546741790e-02 2.9523489276693973e-02 0.0000000000000000e+00  -1.1522361054426474e-02 3.0665940921179944e-02 0.0000000000000000e+00  -1.1136565593690390e-02 3.1805010296612625e-02 0.0000000000000000e+00  -1.0691581255694024e-02 3.2935357651968089e-02 0.0000000000000000e+00  -1.0187157535160623e-02 3.4052177243050707e-02 0.0000000000000000e+00  -9.6235692627064662e-03 3.5150433435780511e-02 0.0000000000000000e+00  -9.0011584722489869e-03 3.6225519215438408e-02 0.0000000000000000e+00  -8.3201761112629991e-03 3.7273233703359006e-02 0.0000000000000000e+00  -7.5829028339382170e-03 3.8287586232951747e-02 0.0000000000000000e+00  -6.7907840293947733e-03 3.9264233272671589e-02 0.0000000000000000e+00  -5.9454659081432546e-03 4.0198726374009862e-02 0.0000000000000000e+00  -5.0507147641864506e-03 4.1084701512523969e-02 0.0000000000000000e+00  -4.1074437587562589e-03 4.1919658684539118e-02 0.0000000000000000e+00  -3.1200814826650909e-03 4.2698268226871269e-02 0.0000000000000000e+00  -2.0921336440633672e-03 4.3417416128605668e-02 0.0000000000000000e+00  -1.2613807902714866e-03 4.5182557875241960e-02 0.0000000000000000e+00  -1.5119586165285087e-03 4.6342884845160609e-02 0.0000000000000000e+00  -1.7789733654042785e-03 4.7561718356471418e-02 0.0000000000000000e+00  -2.0630136630697951e-03 4.8839894269698293e-02 0.0000000000000000e+00  -2.3653019753687144e-03 5.0183700891503057e-02 0.0000000000000000e+00  -2.6898693931874185e-03 5.1595508794332397e-02 0.0000000000000000e+00  -3.0308906885753357e-03 5.3078924276935578e-02 0.0000000000000000e+00  -3.3948623108729903e-03 5.4640647487470703e-02 0.0000000000000000e+00  -3.7821468605878173e-03 5.6283581031524241e-02 0.0000000000000000e+00  -4.1918880833736877e-03 5.8016104311932652e-02 0.0000000000000000e+00  -4.6276748096086015e-03 5.9842879443267848e-02 0.0000000000000000e+00  -5.0910275518665322e-03 6.1768642739933571e-02 0.0000000000000000e+00  -5.5823526356776404e-03 6.3803162899176952e-02 0.0000000000000000e+00  -6.1059951292073422e-03 6.5949791938605215e-02 0.0000000000000000e+00  -6.6601512215258112e-03 6.8220592036307343e-02 0.0000000000000000e+00  -7.2510819036571599e-03 7.0623285257389617e-02 0.0000000000000000e+00  -7.8831923453024470e-03 7.3163130369291299e-02 0.0000000000000000e+00  -8.5518337642015822e-03 7.5854080336362900e-02 0.0000000000000000e+00  -9.2638809486154366e-03 7.8702971915572031e-02 0.0000000000000000e+00  -1.0026030489770930e-02 8.1715955553869582e-02 0.0000000000000000e+00  -1.0837147428766465e-02 8.4908624485199133e-02 0.0000000000000000e+00  -1.1703085547919885e-02 8.8283189519969843e-02 0.0000000000000000e+00  -1.2624606568475923e-02 9.1849763223754058e-02 0.0000000000000000e+00  -1.3594057956255205e-02 9.5610486937635020e-02 0.0000000000000000e+00  -1.4607517096927871e-02 9.9576130745992669e-02 0.0000000000000000e+00  -1.5659307193293132e-02 1.0372627966049221e-01 0.0000000000000000e+00  -1.6717338016839296e-02 1.0806927857465413e-01 0.0000000000000000e+00  -1.7754579538415187e-02 1.1257186363045574e-01 0.0000000000000000e+00  -1.8706323092748701e-02 1.1720254631992151e-01 0.0000000000000000e+00  -1.9492913953257949e-02 1.2191970541695220e-01 0.0000000000000000e+00  -1.9992757053629736e-02 1.2665305101346683e-01 0.0000000000000000e+00  -2.0040563497901894e-02 1.3130005232702890e-01 0.0000000000000000e+00  -1.9413102651265560e-02 1.3573940012403102e-01 0.0000000000000000e+00  -1.7844777144007062e-02 1.3979548462236588e-01 0.0000000000000000e+00  -1.5000953634921904e-02 1.4324918644683421e-01 0.0000000000000000e+00  -1.0472004624054506e-02 1.4584302813575434e-01 0.0000000000000000e+00  -3.8188189199322878e-03 1.4721404303754168e-01 0.0000000000000000e+00  5.3851738656428986e-03 1.4704212542273376e-01 0.0000000000000000e+00  1.7401663335381963e-02 1.4483414629536998e-01 0.0000000000000000e+00  3.2178105521413272e-02 1.4026456793648709e-01 0.0000000000000000e+00  4.9068926460356259e-02 1.3286563277831065e-01 0.0000000000000000e+00  6.6200877699116312e-02 1.2265635356495250e-01 0.0000000000000000e+00  7.9871681030127623e-02 1.0960535403246487e-01 0.0000000000000000e+00  8.5346034173416976e-02 9.4460132533388363e-02 0.0000000000000000e+00  7.6408326066745996e-02 7.8147052655376747e-02 0.0000000000000000e+00  4.8668394935689543e-02 6.2633382321222716e-02 0.0000000000000000e+00  2.5031742576348730e-03 5.2583107194948304e-02 0.0000000000000000e+00  -4.9203341063499509e-02 5.2873314679266599e-02 0.0000000000000000e+00  -8.5017499788254611e-02 6.8416702677717905e-02 0.0000000000000000e+00  -9.0061431142064413e-02 9.4234240947396880e-02 0.0000000000000000e+00  -7.5146392611591464e-02 1.1911040944336727e-01 0.0000000000000000e+00  -5.6493221523495042e-02 1.3785416803378678e-01 0.0000000000000000e+00  -4.0499320940770051e-02 1.5004076171058817e-01 0.0000000000000000e+00  -2.7632794005350823e-02 1.5745251046301054e-01 0.0000000000000000e+00  -1.7336585846717288e-02 1.6147803624478763e-01 0.0000000000000000e+00  -9.0298735234289711e-03 1.6302063212119530e-01 0.0000000000000000e+00  -2.3893535577416175e-03 1.6268188639364201e-01 0.0000000000000000e+00  2.8696730821876461e-03 1.6090515102051417e-01 0.0000000000000000e+00  6.9369326041553306e-03 1.5807341616158707e-01 0.0000000000000000e+00  1.0001577699239232e-02 1.5444652231439845e-01 0.0000000000000000e+00  1.2232728443199763e-02 1.5024885539947311e-01 0.0000000000000000e+00  1.3765544179282213e-02 1.4566147371716046e-01 0.0000000000000000e+00  1.4730834114485723e-02 1.4083880864358059e-01 0.0000000000000000e+00  1.5241841911449280e-02 1.3588618043335512e-01 0.0000000000000000e+00  1.5396087732090646e-02 1.3090114082492596e-01 0.0000000000000000e+00  1.5282154799374018e-02 1.2595192731803292e-01 0.0000000000000000e+00  1.4963982526243173e-02 1.2109734698007286e-01 0.0000000000000000e+00  1.4504543409732685e-02 1.1636159916935607e-01 0.0000000000000000e+00  1.3946215447294491e-02 1.1178976108945306e-01 0.0000000000000000e+00  1.3326967324315975e-02 1.0738524128414687e-01 0.0000000000000000e+00  1.2671196188725734e-02 1.0316806259223646e-01 0.0000000000000000e+00  1.1996475811382766e-02 9.9141788597080838e-02 0.0000000000000000e+00  1.1315102496764200e-02 9.5313949640576517e-02 0.0000000000000000e+00  1.0643092492118035e-02 9.1670729296892614e-02 0.0000000000000000e+00  9.9881664640012521e-03 8.8207884293569419e-02 0.0000000000000000e+00  9.3502312649864795e-03 8.4931867660179683e-02 0.0000000000000000e+00  8.7396191865672657e-03 8.1819876583912599e-02 0.0000000000000000e+00  8.1443380773143902e-03 7.8875510030062629e-02 0.0000000000000000e+00  7.5753343044843132e-03 7.6083787285722640e-02 0.0000000000000000e+00  7.0309698194935153e-03 7.3440018032061308e-02 0.0000000000000000e+00  6.5092192476975510e-03 7.0935069921601049e-02 0.0000000000000000e+00  6.0103215280001713e-03 6.8559476155805835e-02 0.0000000000000000e+00  5.5350599830335809e-03 6.6308651047341960e-02 0.0000000000000000e+00  5.0836247924731749e-03 6.4170684951550802e-02 0.0000000000000000e+00  4.6493656781130136e-03 6.2144582298209003e-02 0.0000000000000000e+00  4.2366276117491442e-03 6.0218253484111944e-02 0.0000000000000000e+00  3.8452455999932788e-03 5.8389280105390802e-02 0.0000000000000000e+00  3.4735303273306108e-03 5.6649032851803914e-02 0.0000000000000000e+00  3.1199513104875061e-03 5.4995331494782369e-02 0.0000000000000000e+00  2.7821805956014115e-03 5.3420789859607326e-02 0.0000000000000000e+00  2.4626868806926177e-03 5.1921797405921011e-02 0.0000000000000000e+00  2.1615323928067948e-03 5.0492587075723253e-02 0.0000000000000000e+00  1.8762875140894909e-03 4.9130911606033494e-02 0.0000000000000000e+00  1.6069120905795799e-03 4.7832017534632051e-02 0.0000000000000000e+00  1.3532959514848074e-03 4.6592825373727692e-02 0.0000000000000000e+00  1.1130978825773586e-03 4.5410283788790910e-02 0.0000000000000000e+00  8.8719153179574639e-04 4.4279794559378083e-02 0.0000000000000000e+00  6.7539771165311263e-04 4.3199064217944422e-02 0.0000000000000000e+00  4.7660156047796103e-04 4.2166083313008737e-02 0.0000000000000000e+00  1.2434149491244097e-03 4.0603470764439820e-02 0.0000000000000000e+00  2.1631870385715704e-03 3.9973176532861011e-02 0.0000000000000000e+00  3.0489794558390421e-03 3.9290396534265790e-02 0.0000000000000000e+00  3.8975935754193454e-03 3.8559372010457345e-02 0.0000000000000000e+00  4.7065349670895717e-03 3.7781938058320495e-02 0.0000000000000000e+00  5.4735031282889448e-03 3.6963084557427195e-02 0.0000000000000000e+00  6.1957360186241320e-03 3.6104793062978646e-02 0.0000000000000000e+00  6.8723830442005036e-03 3.5212402475086814e-02 0.0000000000000000e+00  7.4998902328048712e-03 3.4289862936239611e-02 0.0000000000000000e+00  8.0794008025490173e-03 3.3339276802057866e-02 0.0000000000000000e+00  8.6083840971426170e-03 3.2366792628315703e-02 0.0000000000000000e+00  9.0867956878021554e-03 3.1377023811810942e-02 0.0000000000000000e+00  9.5132799848153850e-03 3.0372306758997103e-02 0.0000000000000000e+00  9.8881219259771020e-03 2.9357653085656462e-02 0.0000000000000000e+00  1.0212146237486732e-02 2.8335779649669178e-02 0.0000000000000000e+00  1.0485374536183003e-02 2.7312168710925486e-02 0.0000000000000000e+00  1.0707792625976095e-02 2.6289494753512485e-02 0.0000000000000000e+00  1.0881767261594762e-02 2.5271904141881203e-02 0.0000000000000000e+00  1.1006753867267655e-02 2.4262168245798701e-02 0.0000000000000000e+00  1.1084990240253785e-02 2.3263853904500524e-02 0.0000000000000000e+00  1.1117580706548089e-02 2.2279751196841144e-02 0.0000000000000000e+00  1.1105957681766190e-02 2.1313241146169792e-02 0.0000000000000000e+00  1.1051620457850802e-02 2.0366829221907839e-02 0.0000000000000000e+00  1.0956800681865362e-02 1.9441753542836039e-02 0.0000000000000000e+00  1.0822776551604157e-02 1.8541246563058528e-02 0.0000000000000000e+00  1.0651596200147254e-02 1.7666899784977565e-02 0.0000000000000000e+00  1.0445104177202144e-02 1.6821055720656550e-02 0.0000000000000000e+00  1.0205165627157240e-02 1.6003789087000685e-02 0.0000000000000000e+00  9.9334832964099954e-03 1.5218270391707200e-02 0.0000000000000000e+00  9.6323174284994664e-03 1.4465144952357565e-02 0.0000000000000000e+00  9.3033477548172053e-03 1.3744844113663899e-02 0.0000000000000000e+00  8.9486895281824849e-03 1.3058637898141941e-02 0.0000000000000000e+00  8.5699018872392365e-03 1.2407254268592575e-02 0.0000000000000000e+00  8.1685060521427284e-03 1.1792074176769403e-02 0.0000000000000000e+00  7.7463137668329551e-03 1.1212424733945486e-02 0.0000000000000000e+00  7.3055141557180738e-03 1.0669912980420374e-02 0.0000000000000000e+00  6.8468694683251150e-03 1.0164456278515645e-02 0.0000000000000000e+00  6.3722902357411975e-03 9.6958031060274449e-03 0.0000000000000000e+00  5.8833924836458190e-03 9.2645336590896892e-03 0.0000000000000000e+00  5.3815458582760402e-03 8.8707424367815250e-03 0.0000000000000000e+00  4.8686101363994878e-03 8.5151016300913183e-03 0.0000000000000000e+00  4.3452179781371695e-03 8.1983490201225275e-03 0.0000000000000000e+00  3.8128685892125916e-03 7.9181473914451111e-03 0.0000000000000000e+00  3.2725980757142940e-03 7.6760039547111181e-03 0.0000000000000000e+00  2.7256304265711505e-03 7.4720098107075522e-03 0.0000000000000000e+00  2.1734936521523975e-03 7.3053858042436831e-03 0.0000000000000000e+00  1.6170293267081877e-03 7.1763233615192408e-03 0.0000000000000000e+00  1.0577050546055657e-03 7.0852532521647089e-03 0.0000000000000000e+00  4.9676974320672857e-04 7.0329064174072930e-03 0.0000000000000000e+00  -6.5757331697029964e-05 7.0183119231980780e-03 0.0000000000000000e+00  -6.2801507525295686e-04 7.0405439520377488e-03 0.0000000000000000e+00  -1.1889064888480219e-03 7.1010978852644544e-03 0.0000000000000000e+00  -1.7470834711842869e-03 7.1999676078605681e-03 0.0000000000000000e+00  -2.3017757172853477e-03 7.3365895538450247e-03 0.0000000000000000e+00  -2.8518832070588526e-03 7.5106658211690804e-03 0.0000000000000000e+00  -3.3965996570683291e-03 7.7224423763989462e-03 0.0000000000000000e+00  -3.9342054343497745e-03 7.9715692962999511e-03 0.0000000000000000e+00  -4.4636540667372764e-03 8.2591213148123649e-03 0.0000000000000000e+00  -4.9838363838011083e-03 8.5847731025179147e-03 0.0000000000000000e+00  -5.4932515207523451e-03 8.9483190442160802e-03 0.0000000000000000e+00  -5.9907239974911347e-03 9.3484433520750025e-03 0.0000000000000000e+00  -6.4745070056831215e-03 9.7868347399315062e-03 0.0000000000000000e+00  -6.9441105486053511e-03 1.0262057113862704e-02 0.0000000000000000e+00  -7.3969564660362180e-03 1.0774397050834692e-02 0.0000000000000000e+00  -7.8320194293441565e-03 1.1324014236490229e-02 0.0000000000000000e+00  -8.2477301721968141e-03 1.1909933781462241e-02 0.0000000000000000e+00  -8.6417760886859530e-03 1.2531448192130678e-02 0.0000000000000000e+00  -9.0134976924727949e-03 1.3188037811971299e-02 0.0000000000000000e+00  -9.3600286176193041e-03 1.3879306894481292e-02 0.0000000000000000e+00  -9.6808480555689354e-03 1.4604056023001535e-02 0.0000000000000000e+00  -9.9731577393436261e-03 1.5361594091510245e-02 0.0000000000000000e+00  -1.0235397426155588e-02 1.6151497306941601e-02 0.0000000000000000e+00  -1.0465537916635596e-02 1.6971946772115866e-02 0.0000000000000000e+00  -1.0662299828725878e-02 1.7820308623412377e-02 0.0000000000000000e+00  -1.0822896650443290e-02 1.8697180420656226e-02 0.0000000000000000e+00  -1.0946501330898474e-02 1.9600144401703167e-02 0.0000000000000000e+00  -1.1031039928503267e-