<?xml version="1.0"?>
<VTKFile type="UnstructuredGrid"  version="0.1"  >
<UnstructuredGrid>
<Piece  NumberOfPoints="16275" NumberOfCells="32468">
<Points>
<DataArray  type="Float64"  NumberOfComponents="3"  format="ascii">-0.5 0.5 0  0.5 0.5 0  0.5 -0.5 0  -0.5 -0.5 0  -1 1 0  1 1 0  1 -1 0  -1 -1 0  -0.4900000000000277 0.5 0  -0.4800000000000555 0.5 0  -0.4700000000000832 0.5 0  -0.4600000000001109 0.5 0  -0.4500000000001387 0.5 0  -0.4400000000001664 0.5 0  -0.4300000000001942 0.5 0  -0.4200000000002219 0.5 0  -0.4100000000002497 0.5 0  -0.4000000000002774 0.5 0  -0.3900000000003052 0.5 0  -0.3800000000003328 0.5 0  -0.3700000000003606 0.5 0  -0.3600000000003883 0.5 0  -0.3500000000004161 0.5 0  -0.3400000000004438 0.5 0  -0.3300000000004716 0.5 0  -0.3200000000004993 0.5 0  -0.3100000000005271 0.5 0  -0.3000000000005548 0.5 0  -0.2900000000005825 0.5 0  -0.2800000000006103 0.5 0  -0.2700000000006381 0.5 0  -0.2600000000006658 0.5 0  -0.2500000000006935 0.5 0  -0.2400000000007212 0.5 0  -0.230000000000749 0.5 0  -0.2200000000007767 0.5 0  -0.2100000000008044 0.5 0  -0.2000000000008322 0.5 0  -0.19000000000086 0.5 0  -0.1800000000008877 0.5 0  -0.1700000000009154 0.5 0  -0.1600000000009431 0.5 0  -0.1500000000009709 0.5 0  -0.1400000000009986 0.5 0  -0.1300000000010264 0.5 0  -0.1200000000010541 0.5 0  -0.1100000000010818 0.5 0  -0.1000000000011096 0.5 0  -0.09000000000113734 0.5 0  -0.08000000000116503 0.5 0  -0.07000000000119283 0.5 0  -0.06000000000122058 0.5 0  -0.05000000000124827 0.5 0  -0.04000000000127607 0.5 0  -0.03000000000130376 0.5 0  -0.02000000000133151 0.5 0  -0.01000000000135925 0.5 0  -1.376121439022882e-12 0.5 0  0.009999999998640763 0.5 0  0.01999999999866864 0.5 0  0.02999999999869629 0.5 0  0.03999999999872406 0.5 0  0.04999999999875182 0.5 0  0.05999999999877947 0.5 0  0.06999999999880724 0.5 0  0.079999999998835 0.5 0  0.08999999999886266 0.5 0  0.09999999999889042 0.5 0  0.1099999999989182 0.5 0  0.1199999999989459 0.5 0  0.1299999999989737 0.5 0  0.1399999999990014 0.5 0  0.1499999999990291 0.5 0  0.1599999999990568 0.5 0  0.1699999999990847 0.5 0  0.1799999999991124 0.5 0  0.1899999999991401 0.5 0  0.1999999999991678 0.5 0  0.2099999999991955 0.5 0  0.2199999999992234 0.5 0  0.2299999999992511 0.5 0  0.2399999999992788 0.5 0  0.2499999999993066 0.5 0  0.2599999999993342 0.5 0  0.269999999999362 0.5 0  0.2799999999993897 0.5 0  0.2899999999994175 0.5 0  0.2999999999994452 0.5 0  0.3099999999994729 0.5 0  0.3199999999995007 0.5 0  0.3299999999995284 0.5 0  0.3399999999995562 0.5 0  0.3499999999995839 0.5 0  0.3599999999996116 0.5 0  0.3699999999996393 0.5 0  0.379999999999667 0.5 0  0.3899999999996949 0.5 0  0.3999999999997226 0.5 0  0.4099999999997503 0.5 0  0.419999999999778 0.5 0  0.4299999999998058 0.5 0  0.4399999999998336 0.5 0  0.4499999999998613 0.5 0  0.4599999999998891 0.5 0  0.4699999999999167 0.5 0  0.4799999999999445 0.5 0  0.4899999999999722 0.5 0  0.5 0.4900000000000277 0  0.5 0.4800000000000555 0  0.5 0.4700000000000832 0  0.5 0.4600000000001109 0  0.5 0.4500000000001387 0  0.5 0.4400000000001664 0  0.5 0.4300000000001942 0  0.5 0.4200000000002219 0  0.5 0.4100000000002497 0  0.5 0.4000000000002774 0  0.5 0.3900000000003052 0  0.5 0.3800000000003328 0  0.5 0.3700000000003606 0  0.5 0.3600000000003883 0  0.5 0.3500000000004161 0  0.5 0.3400000000004438 0  0.5 0.3300000000004716 0  0.5 0.3200000000004993 0  0.5 0.3100000000005271 0  0.5 0.3000000000005548 0  0.5 0.2900000000005825 0  0.5 0.2800000000006103 0  0.5 0.2700000000006381 0  0.5 0.2600000000006658 0  0.5 0.2500000000006935 0  0.5 0.2400000000007212 0  0.5 0.230000000000749 0  0.5 0.2200000000007767 0  0.5 0.2100000000008044 0  0.5 0.2000000000008322 0  0.5 0.19000000000086 0  0.5 0.1800000000008877 0  0.5 0.1700000000009154 0  0.5 0.1600000000009431 0  0.5 0.1500000000009709 0  0.5 0.1400000000009986 0  0.5 0.1300000000010264 0  0.5 0.1200000000010541 0  0.5 0.1100000000010818 0  0.5 0.1000000000011096 0  0.5 0.09000000000113734 0  0.5 0.08000000000116503 0  0.5 0.07000000000119283 0  0.5 0.06000000000122058 0  0.5 0.05000000000124827 0  0.5 0.04000000000127607 0  0.5 0.03000000000130376 0  0.5 0.02000000000133151 0  0.5 0.01000000000135925 0  0.5 1.376121439022882e-12 0  0.5 -0.009999999998640763 0  0.5 -0.01999999999866864 0  0.5 -0.02999999999869629 0  0.5 -0.03999999999872406 0  0.5 -0.04999999999875182 0  0.5 -0.05999999999877947 0  0.5 -0.06999999999880724 0  0.5 -0.079999999998835 0  0.5 -0.08999999999886266 0  0.5 -0.09999999999889042 0  0.5 -0.1099999999989182 0  0.5 -0.1199999999989459 0  0.5 -0.1299999999989737 0  0.5 -0.1399999999990014 0  0.5 -0.1499999999990291 0  0.5 -0.1599999999990568 0  0.5 -0.1699999999990847 0  0.5 -0.1799999999991124 0  0.5 -0.1899999999991401 0  0.5 -0.1999999999991678 0  0.5 -0.2099999999991955 0  0.5 -0.2199999999992234 0  0.5 -0.2299999999992511 0  0.5 -0.2399999999992788 0  0.5 -0.2499999999993066 0  0.5 -0.2599999999993342 0  0.5 -0.269999999999362 0  0.5 -0.2799999999993897 0  0.5 -0.2899999999994175 0  0.5 -0.2999999999994452 0  0.5 -0.3099999999994729 0  0.5 -0.3199999999995007 0  0.5 -0.3299999999995284 0  0.5 -0.3399999999995562 0  0.5 -0.3499999999995839 0  0.5 -0.3599999999996116 0  0.5 -0.3699999999996393 0  0.5 -0.379999999999667 0  0.5 -0.3899999999996949 0  0.5 -0.3999999999997226 0  0.5 -0.4099999999997503 0  0.5 -0.419999999999778 0  0.5 -0.4299999999998058 0  0.5 -0.4399999999998336 0  0.5 -0.4499999999998613 0  0.5 -0.4599999999998891 0  0.5 -0.4699999999999167 0  0.5 -0.4799999999999445 0  0.5 -0.4899999999999722 0  0.4900000000000277 -0.5 0  0.4800000000000555 -0.5 0  0.4700000000000832 -0.5 0  0.4600000000001109 -0.5 0  0.4500000000001387 -0.5 0  0.4400000000001664 -0.5 0  0.4300000000001942 -0.5 0  0.4200000000002219 -0.5 0  0.4100000000002497 -0.5 0  0.4000000000002774 -0.5 0  0.3900000000003052 -0.5 0  0.3800000000003328 -0.5 0  0.3700000000003606 -0.5 0  0.3600000000003883 -0.5 0  0.3500000000004161 -0.5 0  0.3400000000004438 -0.5 0  0.3300000000004716 -0.5 0  0.3200000000004993 -0.5 0  0.3100000000005271 -0.5 0  0.3000000000005548 -0.5 0  0.2900000000005825 -0.5 0  0.2800000000006103 -0.5 0  0.2700000000006381 -0.5 0  0.2600000000006658 -0.5 0  0.2500000000006935 -0.5 0  0.2400000000007212 -0.5 0  0.230000000000749 -0.5 0  0.2200000000007767 -0.5 0  0.2100000000008044 -0.5 0  0.2000000000008322 -0.5 0  0.19000000000086 -0.5 0  0.1800000000008877 -0.5 0  0.1700000000009154 -0.5 0  0.1600000000009431 -0.5 0  0.1500000000009709 -0.5 0  0.1400000000009986 -0.5 0  0.1300000000010264 -0.5 0  0.1200000000010541 -0.5 0  0.1100000000010818 -0.5 0  0.1000000000011096 -0.5 0  0.09000000000113734 -0.5 0  0.08000000000116503 -0.5 0  0.07000000000119283 -0.5 0  0.06000000000122058 -0.5 0  0.05000000000124827 -0.5 0  0.04000000000127607 -0.5 0  0.03000000000130376 -0.5 0  0.02000000000133151 -0.5 0  0.01000000000135925 -0.5 0  1.376121439022882e-12 -0.5 0  -0.009999999998640763 -0.5 0  -0.01999999999866864 -0.5 0  -0.02999999999869629 -0.5 0  -0.03999999999872406 -0.5 0  -0.04999999999875182 -0.5 0  -0.05999999999877947 -0.5 0  -0.06999999999880724 -0.5 0  -0.079999999998835 -0.5 0  -0.08999999999886266 -0.5 0  -0.09999999999889042 -0.5 0  -0.1099999999989182 -0.5 0  -0.1199999999989459 -0.5 0  -0.1299999999989737 -0.5 0  -0.1399999999990014 -0.5 0  -0.1499999999990291 -0.5 0  -0.1599999999990568 -0.5 0  -0.1699999999990847 -0.5 0  -0.1799999999991124 -0.5 0  -0.1899999999991401 -0.5 0  -0.1999999999991678 -0.5 0  -0.2099999999991955 -0.5 0  -0.2199999999992234 -0.5 0  -0.2299999999992511 -0.5 0  -0.2399999999992788 -0.5 0  -0.2499999999993066 -0.5 0  -0.2599999999993342 -0.5 0  -0.269999999999362 -0.5 0  -0.2799999999993897 -0.5 0  -0.2899999999994175 -0.5 0  -0.2999999999994452 -0.5 0  -0.3099999999994729 -0.5 0  -0.3199999999995007 -0.5 0  -0.3299999999995284 -0.5 0  -0.3399999999995562 -0.5 0  -0.3499999999995839 -0.5 0  -0.3599999999996116 -0.5 0  -0.3699999999996393 -0.5 0  -0.379999999999667 -0.5 0  -0.3899999999996949 -0.5 0  -0.3999999999997226 -0.5 0  -0.4099999999997503 -0.5 0  -0.419999999999778 -0.5 0  -0.4299999999998058 -0.5 0  -0.4399999999998336 -0.5 0  -0.4499999999998613 -0.5 0  -0.4599999999998891 -0.5 0  -0.4699999999999167 -0.5 0  -0.4799999999999445 -0.5 0  -0.4899999999999722 -0.5 0  -0.5 -0.4900000000000277 0  -0.5 -0.4800000000000555 0  -0.5 -0.4700000000000832 0  -0.5 -0.4600000000001109 0  -0.5 -0.4500000000001387 0  -0.5 -0.4400000000001664 0  -0.5 -0.4300000000001942 0  -0.5 -0.4200000000002219 0  -0.5 -0.4100000000002497 0  -0.5 -0.4000000000002774 0  -0.5 -0.3900000000003052 0  -0.5 -0.3800000000003328 0  -0.5 -0.3700000000003606 0  -0.5 -0.3600000000003883 0  -0.5 -0.3500000000004161 0  -0.5 -0.3400000000004438 0  -0.5 -0.3300000000004716 0  -0.5 -0.3200000000004993 0  -0.5 -0.3100000000005271 0  -0.5 -0.3000000000005548 0  -0.5 -0.2900000000005825 0  -0.5 -0.2800000000006103 0  -0.5 -0.2700000000006381 0  -0.5 -0.2600000000006658 0  -0.5 -0.2500000000006935 0  -0.5 -0.2400000000007212 0  -0.5 -0.230000000000749 0  -0.5 -0.2200000000007767 0  -0.5 -0.2100000000008044 0  -0.5 -0.2000000000008322 0  -0.5 -0.19000000000086 0  -0.5 -0.1800000000008877 0  -0.5 -0.1700000000009154 0  -0.5 -0.1600000000009431 0  -0.5 -0.1500000000009709 0  -0.5 -0.1400000000009986 0  -0.5 -0.1300000000010264 0  -0.5 -0.1200000000010541 0  -0.5 -0.1100000000010818 0  -0.5 -0.1000000000011096 0  -0.5 -0.09000000000113734 0  -0.5 -0.08000000000116503 0  -0.5 -0.07000000000119283 0  -0.5 -0.06000000000122058 0  -0.5 -0.05000000000124827 0  -0.5 -0.04000000000127607 0  -0.5 -0.03000000000130376 0  -0.5 -0.02000000000133151 0  -0.5 -0.01000000000135925 0  -0.5 -1.376121439022882e-12 0  -0.5 0.009999999998640763 0  -0.5 0.01999999999866864 0  -0.5 0.02999999999869629 0  -0.5 0.03999999999872406 0  -0.5 0.04999999999875182 0  -0.5 0.05999999999877947 0  -0.5 0.06999999999880724 0  -0.5 0.079999999998835 0  -0.5 0.08999999999886266 0  -0.5 0.09999999999889042
[...]
<PointData  Vectors="f_27-0"> 
<DataArray  type="Float64"  Name="f_27-0"  NumberOfComponents="3" format="ascii">3.6732306012307039e-04 4.5077960980949253e-02 0.0000000000000000e+00  -7.6854415840439064e-04 4.5013555010390546e-02 0.0000000000000000e+00  -7.4135730962874018e-04 3.8949919038677665e-02 0.0000000000000000e+00  8.7980317074398901e-04 3.8916835317430537e-02 0.0000000000000000e+00  -5.5644366999950479e-03 1.1797728407231289e-02 0.0000000000000000e+00  5.5771655416117219e-03 1.1812221171418983e-02 0.0000000000000000e+00  -4.7736671364837615e-03 1.1031912629668362e-02 0.0000000000000000e+00  4.7670055432783237e-03 1.1027017019276835e-02 0.0000000000000000e+00  1.4234399219323628e-03 4.4453201779330487e-02 0.0000000000000000e+00  2.4465508406087051e-03 4.3763814435781784e-02 0.0000000000000000e+00  3.4328912984264220e-03 4.3012991894053089e-02 0.0000000000000000e+00  4.3788616521457709e-03 4.2204236903933344e-02 0.0000000000000000e+00  5.2811767321398247e-03 4.1341414547195206e-02 0.0000000000000000e+00  6.1368778178769274e-03 4.0428661847110602e-02 0.0000000000000000e+00  6.9433097418034224e-03 3.9470437549212284e-02 0.0000000000000000e+00  7.6981676908902006e-03 3.8471321000404055e-02 0.0000000000000000e+00  8.3995243385348705e-03 3.7436033537481421e-02 0.0000000000000000e+00  9.0458010534718303e-03 3.6369504058604916e-02 0.0000000000000000e+00  9.6358245460113658e-03 3.5276647586016889e-02 0.0000000000000000e+00  1.0168739145424596e-02 3.4162328729487032e-02 0.0000000000000000e+00  1.0644051984408478e-02 3.3031471804397639e-02 0.0000000000000000e+00  1.1061629271172652e-02 3.1888854341427179e-02 0.0000000000000000e+00  1.1421646037164883e-02 3.0739212931627277e-02 0.0000000000000000e+00  1.1724606962019379e-02 2.9587031001886518e-02 0.0000000000000000e+00  1.1971266033678639e-02 2.8436676929638076e-02 0.0000000000000000e+00  1.2162667345524172e-02 2.7292344882780980e-02 0.0000000000000000e+00  1.2300054251257081e-02 2.6157926718806099e-02 0.0000000000000000e+00  1.2384895215877963e-02 2.5037091937431588e-02 0.0000000000000000e+00  1.2418822124583047e-02 2.3933322641054924e-02 0.0000000000000000e+00  1.2403636023148038e-02 2.2849744418955178e-02 0.0000000000000000e+00  1.2341260480086090e-02 2.1789298965361442e-02 0.0000000000000000e+00  1.2233695468521856e-02 2.0754672708092232e-02 0.0000000000000000e+00  1.2083044024128162e-02 1.9748216939693787e-02 0.0000000000000000e+00  1.1891425239856803e-02 1.8772104478080278e-02 0.0000000000000000e+00  1.1661029616086272e-02 1.7828221928254100e-02 0.0000000000000000e+00  1.1394025396928414e-02 1.6918255917686392e-02 0.0000000000000000e+00  1.1092604525687845e-02 1.6043665658092066e-02 0.0000000000000000e+00  1.0758926732152105e-02 1.5205685238384198e-02 0.0000000000000000e+00  1.0395091619537130e-02 1.4405385199521394e-02 0.0000000000000000e+00  1.0003207115874671e-02 1.3643662899448593e-02 0.0000000000000000e+00  9.5852845248449291e-03 1.2921255975400524e-02 0.0000000000000000e+00  9.1432953951526043e-03 1.2238724434045698e-02 0.0000000000000000e+00  8.6791355497510356e-03 1.1596547827520693e-02 0.0000000000000000e+00  8.1946410386113579e-03 1.0995062567298758e-02 0.0000000000000000e+00  7.6915717565389742e-03 1.0434550553103682e-02 0.0000000000000000e+00  7.1716079477968063e-03 9.9151620947500740e-03 0.0000000000000000e+00  6.6363683890492530e-03 9.4369980591826955e-03 0.0000000000000000e+00  6.0874002326773815e-03 9.0001242424590580e-03 0.0000000000000000e+00  5.5261702437823931e-03 8.6045272757626374e-03 0.0000000000000000e+00  4.9540914269781229e-03 8.2501757422482752e-03 0.0000000000000000e+00  4.3725101243022816e-03 7.9370251175517586e-03 0.0000000000000000e+00  3.7827356795465603e-03 7.6649902200132160e-03 0.0000000000000000e+00  3.1859993452423739e-03 7.4340055155850699e-03 0.0000000000000000e+00  2.5834994490686212e-03 7.2439728481326418e-03 0.0000000000000000e+00  1.9764175464788685e-03 7.0948426947521782e-03 0.0000000000000000e+00  1.3658692630187238e-03 6.9865356527471717e-03 0.0000000000000000e+00  7.5296885160526820e-04 6.9189901987675084e-03 0.0000000000000000e+00  1.3880669416531041e-04 6.8921929949402241e-03 0.0000000000000000e+00  -4.7553462460636620e-04 6.9061165621674180e-03 0.0000000000000000e+00  -1.0889681066958497e-03 6.9607482943546102e-03 0.0000000000000000e+00  -1.7004220612982612e-03 7.0561191416814014e-03 0.0000000000000000e+00  -2.3087846072105465e-03 7.1922665276955913e-03 0.0000000000000000e+00  -2.9129556953215565e-03 7.3692406563108546e-03 0.0000000000000000e+00  -3.5117749953183868e-03 7.5870880066483326e-03 0.0000000000000000e+00  -4.1040713612500402e-03 7.8458910282050379e-03 0.0000000000000000e+00  -4.6886259145609574e-03 8.1457162913461615e-03 0.0000000000000000e+00  -5.2641805569791245e-03 8.4866321220286624e-03 0.0000000000000000e+00  -5.8294188944041795e-03 8.8686817651594148e-03 0.0000000000000000e+00  -6.3829608210727445e-03 9.2919223770430836e-03 0.0000000000000000e+00  -6.9233898275856366e-03 9.7563362686319700e-03 0.0000000000000000e+00  -7.4491819882476253e-03 1.0261899760864068e-02 0.0000000000000000e+00  -7.9587865699536180e-03 1.0808533382952082e-02 0.0000000000000000e+00  -8.4505595479586401e-03 1.1396091971378981e-02 0.0000000000000000e+00  -8.9227911172062493e-03 1.2024355547845464e-02 0.0000000000000000e+00  -9.3737101163594589e-03 1.2693009109334633e-02 0.0000000000000000e+00  -9.8014345433911319e-03 1.3401646207813062e-02 0.0000000000000000e+00  -1.0204081938006390e-02 1.4149745814180971e-02 0.0000000000000000e+00  -1.0579632930615973e-02 1.4936634490436784e-02 0.0000000000000000e+00  -1.0926074437148102e-02 1.5761519782601506e-02 0.0000000000000000e+00  -1.1241309058949423e-02 1.6623414332259792e-02 0.0000000000000000e+00  -1.1523188897416275e-02 1.7521143394912529e-02 0.0000000000000000e+00  -1.1769583341176351e-02 1.8453398595570662e-02 0.0000000000000000e+00  -1.1978292808714368e-02 1.9418607660995218e-02 0.0000000000000000e+00  -1.2147164932576454e-02 2.0414980140358634e-02 0.0000000000000000e+00  -1.2274027959750871e-02 2.1440514574961156e-02 0.0000000000000000e+00  -1.2356775147285247e-02 2.2492904023214053e-02 0.0000000000000000e+00  -1.2393338498517934e-02 2.3569702120090220e-02 0.0000000000000000e+00  -1.2381734211731502e-02 2.4668088443439564e-02 0.0000000000000000e+00  -1.2320111360784456e-02 2.5785045047391885e-02 0.0000000000000000e+00  -1.2206692744779561e-02 2.6917277408262934e-02 0.0000000000000000e+00  -1.2039929009773321e-02 2.8061208631890034e-02 0.0000000000000000e+00  -1.1818408626789638e-02 2.9213092492639769e-02 0.0000000000000000e+00  -1.1540943483216898e-02 3.0368799474749832e-02 0.0000000000000000e+00  -1.1206583962266257e-02 3.1524164060986279e-02 0.0000000000000000e+00  -1.0814657132067453e-02 3.2674679884492484e-02 0.0000000000000000e+00  -1.0364762343408426e-02 3.3815759000902695e-02 0.0000000000000000e+00  -9.8568299716098994e-03 3.4942559572793803e-02 0.0000000000000000e+00  -9.2911079491227160e-03 3.6050243820092052e-02 0.0000000000000000e+00  -8.6682030795121653e-03 3.7133856772928998e-02 0.0000000000000000e+00  -7.9890493584121453e-03 3.8188476511422355e-02 0.0000000000000000e+00  -7.2550264847671695e-03 3.9209111779524061e-02 0.0000000000000000e+00  -6.4678088394255623e-03 4.0190884864289157e-02 0.0000000000000000e+00  -5.6294920396073823e-03 4.1129050842606429e-02 0.0000000000000000e+00  -4.7425069382778275e-03 4.2018963299949315e-02 0.0000000000000000e+00  -3.8096290984394598e-03 4.2856342912743574e-02 0.0000000000000000e+00  -2.8339986024552523e-03 4.3637027159092859e-02 0.0000000000000000e+00  -1.8190881466142428e-03 4.4357234572765344e-02 0.0000000000000000e+00  -9.7111526770171349e-04 4.6103813071173998e-02 0.0000000000000000e+00  -1.1840788248633181e-03 4.7241848546408977e-02 0.0000000000000000e+00  -1.4070598249736215e-03 4.8429634073789439e-02 0.0000000000000000e+00  -1.6395587437017611e-03 4.9669163251991763e-02 0.0000000000000000e+00  -1.8808603296151930e-03 5.0962474647817883e-02 0.0000000000000000e+00  -2.1299540484315564e-03 5.2311506580825354e-02 0.0000000000000000e+00  -2.3856255210937130e-03 5.3718113958737053e-02 0.0000000000000000e+00  -2.6461833325744687e-03 5.5184329383787194e-02 0.0000000000000000e+00  -2.9096748338030948e-03 5.6711657972958948e-02 0.0000000000000000e+00  -3.1735127835036975e-03 5.8301597958596518e-02 0.0000000000000000e+00  -3.4346688073676464e-03 5.9955526401663531e-02 0.0000000000000000e+00  -3.6896049755929883e-03 6.1674312543159387e-02 0.0000000000000000e+00  -3.9340834792385322e-03 6.3458622169241696e-02 0.0000000000000000e+00  -4.1632348058563383e-03 6.5308468423187369e-02 0.0000000000000000e+00  -4.3715528900456864e-03 6.7223512467933441e-02 0.0000000000000000e+00  -4.5528800975808284e-03 6.9202714983763888e-02 0.0000000000000000e+00  -4.7005168151166739e-03 7.1244316946909109e-02 0.0000000000000000e+00  -4.8073756478323381e-03 7.3345837727804133e-02 0.0000000000000000e+00  -4.8660623386204641e-03 7.5503696420481783e-02 0.0000000000000000e+00  -4.8691756282202821e-03 7.7713435914141982e-02 0.0000000000000000e+00  -4.8097772743947755e-03 7.9969805863164448e-02 0.0000000000000000e+00  -4.6816118043114426e-03 8.2266087717388789e-02 0.0000000000000000e+00  -4.4797537615891463e-03 8.4594704682387487e-02 0.0000000000000000e+00  -4.2010948520769661e-03 8.6946712419999017e-02 0.0000000000000000e+00  -3.8449373710629882e-03 8.9312485887136903e-02 0.0000000000000000e+00  -3.4135963495774743e-03 9.1681002402760711e-02 0.0000000000000000e+00  -2.9128988217119391e-03 9.4040477593524185e-02 0.0000000000000000e+00  -2.3527241003177507e-03 9.6378188455772104e-02 0.0000000000000000e+00  -1.7468856276605226e-03 9.8681299960660537e-02 0.0000000000000000e+00  -1.1136369352244661e-03 1.0093597742997082e-01 0.0000000000000000e+00  -4.7479068769428482e-04 1.0312862575254655e-01 0.0000000000000000e+00  1.4466802941436553e-04 1.0524565551156220e-01 0.0000000000000000e+00  7.1791547859070674e-04 1.0727393232233481e-01 0.0000000000000000e+00  1.2174720787471198e-03 1.0920085869247398e-01 0.0000000000000000e+00  1.6173122281659920e-03 1.1101493914066091e-01 0.0000000000000000e+00  1.8944085385247185e-03 1.1270543213161313e-01 0.0000000000000000e+00  2.0312488050687632e-03 1.1426298753062883e-01 0.0000000000000000e+00  2.0168724308250265e-03 1.1567960569635101e-01 0.0000000000000000e+00  1.8485486395800152e-03 1.1694852400360947e-01 0.0000000000000000e+00  1.5327896714691649e-03 1.1806407121583599e-01 0.0000000000000000e+00  1.0846704191290917e-03 1.1902206666002579e-01 0.0000000000000000e+00  5.2770820976322306e-04 1.1981915211305573e-01 0.0000000000000000e+00  -1.0767054089011889e-04 1.2045262389368673e-01 0.0000000000000000e+00  -7.8674478152722599e-04 1.2092067756075622e-01 0.0000000000000000e+00  -1.4725071296360786e-03 1.2122200511342374e-01 0.0000000000000000e+00  -2.1284436017216051e-03 1.2135568312623034e-01 0.0000000000000000e+00  -2.7207770965100701e-03 1.2132089705649383e-01 0.0000000000000000e+00  -3.2210309589318421e-03 1.2111778341315248e-01 0.0000000000000000e+00  -3.6071238366868130e-03 1.2074660056740090e-01 0.0000000000000000e+00  -3.8641096912669379e-03 1.2020838338632456e-01 0.0000000000000000e+00  -3.9848687060095095e-03 1.1950491843455885e-01 0.0000000000000000e+00  -3.9695534486084210e-03 1.1863910798600030e-01 0.0000000000000000e+00  -3.8245830003144029e-03 1.1761495726632837e-01 0.0000000000000000e+00  -3.5615458360137120e-03 1.1643755920438918e-01 0.0000000000000000e+00  -3.1959913212273455e-03 1.1511331509102531e-01 0.0000000000000000e+00  -2.7463442920273688e-03 1.1364998702231388e-01 0.0000000000000000e+00  -2.2324153950347204e-03 1.1205657317295027e-01 0.0000000000000000e+00  -1.6742515952987780e-03 1.1034296867716950e-01 0.0000000000000000e+00  -1.0911774044971155e-03 1.0852021855711459e-01 0.0000000000000000e+00  -5.0114105059472619e-04 1.0659988315806510e-01 0.0000000000000000e+00  8.0011586308969640e-05 1.0459405877872341e-01 0.0000000000000000e+00  6.3829506461934469e-04 1.0251517188440536e-01 0.0000000000000000e+00  1.1624558674736447e-03 1.0037578458190273e-01 0.0000000000000000e+00  1.6436450803868977e-03 9.8188131673898227e-02 0.0000000000000000e+00  2.0751848492257256e-03 9.5964478404903811e-02 0.0000000000000000e+00  2.4528853719311019e-03 9.3716226191188856e-02 0.0000000000000000e+00  2.7744228773969697e-03 9.1454301083041492e-02 0.0000000000000000e+00  3.0391699249192059e-03 8.9189055541244650e-02 0.0000000000000000e+00  3.2478362992169681e-03 8.6929849954931068e-02 0.0000000000000000e+00  3.4024303616767009e-03 8.4685391016384545e-02 0.0000000000000000e+00  3.5058488675086450e-03 8.2463182576544308e-02 0.0000000000000000e+00  3.5614907232956851e-03 8.0270355831217846e-02 0.0000000000000000e+00  3.5734225302605678e-03 7.8112579559522832e-02 0.0000000000000000e+00  3.5460880825385604e-03 7.5995161043258264e-02 0.0000000000000000e+00  3.4837828244959250e-03 7.3922266057561067e-02 0.0000000000000000e+00  3.3907847803584697e-03 7.1897579160984409e-02 0.0000000000000000e+00  3.2716200920988271e-03 6.9923729685926805e-02 0.0000000000000000e+00  3.1300179954265022e-03 6.8003126674541406e-02 0.0000000000000000e+00  2.9700431806698653e-03 6.6137261061288879e-02 0.0000000000000000e+00  2.7952337707095043e-03 6.4327126093666351e-02 0.0000000000000000e+00  2.6087928291356633e-03 6.2573434843011352e-02 0.0000000000000000e+00  2.4136684134465477e-03 6.0876347143661066e-02 0.0000000000000000e+00  2.2125076055506607e-03 5.9235669574900437e-02 0.0000000000000000e+00  2.0076762452000893e-03 5.7651003526848446e-02 0.0000000000000000e+00  1.8011319417782640e-03 5.6121574303238414e-02 0.0000000000000000e+00  1.5947449189606709e-03 5.4646534212079455e-02 0.0000000000000000e+00  1.3900698817109888e-03 5.3224701547156299e-02 0.0000000000000000e+00  1.1883456376510497e-03 5.1854935436564539e-02 0.0000000000000000e+00  9.9069998909468208e-04 5.0535822383253423e-02 0.0000000000000000e+00  7.9804946461069096e-04 4.9265997729015083e-02 0.0000000000000000e+00  6.1120336267377051e-04 4.8043990625592607e-02 0.0000000000000000e+00  4.3077447180949315e-04 4.6868264456384492e-02 0.0000000000000000e+00  2.5724885382056038e-04 4.5737358843494051e-02 0.0000000000000000e+00  9.0989605728027014e-05 4.4649727324125255e-02 0.0000000000000000e+00  -6.7608895758842691e-05 4.3603835371128850e-02 0.0000000000000000e+00  -2.1842862123785408e-04 4.2598241241170356e-02 0.0000000000000000e+00  -3.6128672514080325e-04 4.1631461223612526e-02 0.0000000000000000e+00  -4.9605647071025195e-04 4.0702054544848952e-02 0.0000000000000000e+00  -6.2275605949247347e-04 3.9808646245722057e-02 0.0000000000000000e+00  8.9106792186397884e-05 3.8462822503602744e-02 0.0000000000000000e+00  8.9505665565852376e-04 3.7928513353994824e-02 0.0000000000000000e+00  1.6741023609466181e-03 3.7349024112386379e-02 0.0000000000000000e+00  2.4238437943900739e-03 3.6726616900456331e-02 0.0000000000000000e+00  3.1421340549669654e-03 3.6063745133194838e-02 0.0000000000000000e+00  3.8269150194468163e-03 3.5363101114066542e-02 0.0000000000000000e+00  4.4763599181610238e-03 3.4627482026780343e-02 0.0000000000000000e+00  5.0887782951827918e-03 3.3859920432991519e-02 0.0000000000000000e+00  5.6627081873567801e-03 3.3063479650319388e-02 0.0000000000000000e+00  6.1969144285799627e-03 3.2241373801881454e-02 0.0000000000000000e+00  6.6903341635691687e-03 3.1396901435854288e-02 0.0000000000000000e+00  7.1421233566108478e-03 3.0533372758844459e-02 0.0000000000000000e+00  7.5516620620953209e-03 2.9654142268758465e-02 0.0000000000000000e+00  7.9185187262749285e-03 2.8762568687623197e-02 0.0000000000000000e+00  8.2425201709562610e-03 2.7861946160338776e-02 0.0000000000000000e+00  8.5236366228871908e-03 2.6955563606363444e-02 0.0000000000000000e+00  8.7620554386516492e-03 2.6046638087015850e-02 0.0000000000000000e+00  8.9581589114388557e-03 2.5138292278705600e-02 0.0000000000000000e+00  9.1124668919174909e-03 2.4233517100766530e-02 0.0000000000000000e+00  9.2256727867002508e-03 2.3335238250411977e-02 0.0000000000000000e+00  9.2986218078628356e-03 2.2446244424782325e-02 0.0000000000000000e+00  9.3322811531209877e-03 2.1569151270882728e-02 0.0000000000000000e+00  9.3277445367137782e-03 2.0706473451015932e-02 0.0000000000000000e+00  9.2862025417208387e-03 1.9860527579039874e-02 0.0000000000000000e+00  9.2089398733460667e-03 1.9033512587234885e-02 0.0000000000000000e+00  9.0972898189985770e-03 1.8227465951893482e-02 0.0000000000000000e+00  8.9526914946067345e-03 1.7444253570330678e-02 0.0000000000000000e+00  8.7765944341122205e-03 1.6685574522927602e-02 0.0000000000000000e+00  8.5705112291789998e-03 1.5953054125677345e-02 0.0000000000000000e+00  8.3359628747563582e-03 1.5248072455980520e-02 0.0000000000000000e+00  8.0744847104816057e-03 1.4571912419050511e-02 0.0000000000000000e+00  7.7876429417677272e-03 1.3925736605614338e-02 0.0000000000000000e+00  7.4769696680211739e-03 1.3310561678269944e-02 0.0000000000000000e+00  7.1440034476569370e-03 1.2727287291848150e-02 0.0000000000000000e+00  6.7902723945443234e-03 1.2176717741484608e-02 0.0000000000000000e+00  6.4172794300737107e-03 1.1659537896569075e-02 0.0000000000000000e+00  6.0264963349713771e-03 1.1176346029088072e-02 0.0000000000000000e+00  5.6193797494952062e-03 1.0727656133118400e-02 0.0000000000000000e+00  5.1973516548203700e-03 1.0313908758804863e-02 0.0000000000000000e+00  4.7618065802847477e-03 9.9354572780446029e-03 0.0000000000000000e+00  4.3141009363741470e-03 9.5926302775575199e-03 0.0000000000000000e+00  3.8555610512929061e-03 9.2856965822322515e-03 0.0000000000000000e+00  3.3874958641703498e-03 9.0148183942278699e-03 0.0000000000000000e+00  2.9111905284371748e-03 8.7801905885630301e-03 0.0000000000000000e+00  2.4278813171326667e-03 8.5819512868612492e-03 0.0000000000000000e+00  1.9388042829835373e-03 8.4201933804322546e-03 0.0000000000000000e+00  1.4451638963011749e-03 8.2949947552824997e-03 0.0000000000000000e+00  9.4816553738603503e-04 8.2064345343663952e-03 0.0000000000000000e+00  4.4896912748703782e-04 8.1545361679237465e-03 0.0000000000000000e+00  -5.1230354573042113e-05 8.1393107929727346e-03 0.0000000000000000e+00  -5.5127011916812499e-04 8.1607680655111786e-03 0.0000000000000000e+00  -1.0499785598968104e-03 8.2189079622902103e-03 0.0000000000000000e+00  -1.5461832010373433e-03 8.3136976599128033e-03 0.0000000000000000e+00  -2.0386959120522654e-03 8.4450765162095327e-03 0.0000000000000000e+00  -2.5263285160897187e-03 8.6129725394948065e-03 0.0000000000000000e+00  -3.0078632236011237e-03 8.8172969562306854e-03 0.0000000000000000e+00  -3.4820651491101239e-03 9.0579415796572353e-03 0.0000000000000000e+00  -3.9476841846906984e-03 9.3347672551649698e-03 0.0000000000000000e+00  -4.4034397885537660e-03 9.6475821985132354e-03 0.0000000000000000e+00  -4.8480276575745759e-03 9.9961664427042785e-03 0.0000000000000000e+00  -5.2801129824761274e-03 1.0380229944533786e-02 0.0000000000000000e+00  -5.6983286750906638e-03 1.0799462030636243e-02 0.0000000000000000e+00  -6.1012817341532790e-03 1.1253471325119701e-02 0.0000000000000000e+00  -6.4875470326139564e-03 1.1741793656694314e-02 0.0000000000000000e+00  -6.8556702065174736e-03 1.2263909038083763e-02 0.0000000000000000e+00  -7.2041873308212418e-03 1.2819188723164423e-02 0.0000000000000000e+00  -7.5315856342312556e-03 1.3406886840866324e-02 0.0000000000000000e+00  -7.8363558228885574e-03 1.4026196214050669e-02 0.0000000000000000e+00  -8.1169592185573198e-03 1.4676200790372613e-02 0.0000000000000000e+00  -8.3718688181627123e-03 1.5355831233220220e-02 0.0000000000000000e+00  -8.5995426011075647e-03 1.6063899837809793e-02 0.0000000000000000e+00  -8.7984573556666758e-03 1.6799145770245886e-02 0.0000000000000000e+00  -8.9670980603694730e-03 1.7560059838813688e-02 0.0000000000000000e+00  -9.1039962143814965e-03 1.8345053809507125e-02 0.0000000000000000e+00  -9.2077118205504335e-03 1.9152386014342285e-02 0.0000000000000000e+00  -9.2768534463736948e-03 1.9980144819028649e-02 0.0000000000000000e+00  -9.31011431085