<?xml version="1.0"?>
<VTKFile type="UnstructuredGrid"  version="0.1"  >
<UnstructuredGrid>
<Piece  NumberOfPoints="16275" NumberOfCells="32468">
<Points>
<DataArray  type="Float64"  NumberOfComponents="3"  format="ascii">-0.5 0.5 0  0.5 0.5 0  0.5 -0.5 0  -0.5 -0.5 0  -1 1 0  1 1 0  1 -1 0  -1 -1 0  -0.4900000000000277 0.5 0  -0.4800000000000555 0.5 0  -0.4700000000000832 0.5 0  -0.4600000000001109 0.5 0  -0.4500000000001387 0.5 0  -0.4400000000001664 0.5 0  -0.4300000000001942 0.5 0  -0.4200000000002219 0.5 0  -0.4100000000002497 0.5 0  -0.4000000000002774 0.5 0  -0.3900000000003052 0.5 0  -0.3800000000003328 0.5 0  -0.3700000000003606 0.5 0  -0.3600000000003883 0.5 0  -0.3500000000004161 0.5 0  -0.3400000000004438 0.5 0  -0.3300000000004716 0.5 0  -0.3200000000004993 0.5 0  -0.3100000000005271 0.5 0  -0.3000000000005548 0.5 0  -0.2900000000005825 0.5 0  -0.2800000000006103 0.5 0  -0.2700000000006381 0.5 0  -0.2600000000006658 0.5 0  -0.2500000000006935 0.5 0  -0.2400000000007212 0.5 0  -0.230000000000749 0.5 0  -0.2200000000007767 0.5 0  -0.2100000000008044 0.5 0  -0.2000000000008322 0.5 0  -0.19000000000086 0.5 0  -0.1800000000008877 0.5 0  -0.1700000000009154 0.5 0  -0.1600000000009431 0.5 0  -0.1500000000009709 0.5 0  -0.1400000000009986 0.5 0  -0.1300000000010264 0.5 0  -0.1200000000010541 0.5 0  -0.1100000000010818 0.5 0  -0.1000000000011096 0.5 0  -0.09000000000113734 0.5 0  -0.08000000000116503 0.5 0  -0.07000000000119283 0.5 0  -0.06000000000122058 0.5 0  -0.05000000000124827 0.5 0  -0.04000000000127607 0.5 0  -0.03000000000130376 0.5 0  -0.02000000000133151 0.5 0  -0.01000000000135925 0.5 0  -1.376121439022882e-12 0.5 0  0.009999999998640763 0.5 0  0.01999999999866864 0.5 0  0.02999999999869629 0.5 0  0.03999999999872406 0.5 0  0.04999999999875182 0.5 0  0.05999999999877947 0.5 0  0.06999999999880724 0.5 0  0.079999999998835 0.5 0  0.08999999999886266 0.5 0  0.09999999999889042 0.5 0  0.1099999999989182 0.5 0  0.1199999999989459 0.5 0  0.1299999999989737 0.5 0  0.1399999999990014 0.5 0  0.1499999999990291 0.5 0  0.1599999999990568 0.5 0  0.1699999999990847 0.5 0  0.1799999999991124 0.5 0  0.1899999999991401 0.5 0  0.1999999999991678 0.5 0  0.2099999999991955 0.5 0  0.2199999999992234 0.5 0  0.2299999999992511 0.5 0  0.2399999999992788 0.5 0  0.2499999999993066 0.5 0  0.2599999999993342 0.5 0  0.269999999999362 0.5 0  0.2799999999993897 0.5 0  0.2899999999994175 0.5 0  0.2999999999994452 0.5 0  0.3099999999994729 0.5 0  0.3199999999995007 0.5 0  0.3299999999995284 0.5 0  0.3399999999995562 0.5 0  0.3499999999995839 0.5 0  0.3599999999996116 0.5 0  0.3699999999996393 0.5 0  0.379999999999667 0.5 0  0.3899999999996949 0.5 0  0.3999999999997226 0.5 0  0.4099999999997503 0.5 0  0.419999999999778 0.5 0  0.4299999999998058 0.5 0  0.4399999999998336 0.5 0  0.4499999999998613 0.5 0  0.4599999999998891 0.5 0  0.4699999999999167 0.5 0  0.4799999999999445 0.5 0  0.4899999999999722 0.5 0  0.5 0.4900000000000277 0  0.5 0.4800000000000555 0  0.5 0.4700000000000832 0  0.5 0.4600000000001109 0  0.5 0.4500000000001387 0  0.5 0.4400000000001664 0  0.5 0.4300000000001942 0  0.5 0.4200000000002219 0  0.5 0.4100000000002497 0  0.5 0.4000000000002774 0  0.5 0.3900000000003052 0  0.5 0.3800000000003328 0  0.5 0.3700000000003606 0  0.5 0.3600000000003883 0  0.5 0.3500000000004161 0  0.5 0.3400000000004438 0  0.5 0.3300000000004716 0  0.5 0.3200000000004993 0  0.5 0.3100000000005271 0  0.5 0.3000000000005548 0  0.5 0.2900000000005825 0  0.5 0.2800000000006103 0  0.5 0.2700000000006381 0  0.5 0.2600000000006658 0  0.5 0.2500000000006935 0  0.5 0.2400000000007212 0  0.5 0.230000000000749 0  0.5 0.2200000000007767 0  0.5 0.2100000000008044 0  0.5 0.2000000000008322 0  0.5 0.19000000000086 0  0.5 0.1800000000008877 0  0.5 0.1700000000009154 0  0.5 0.1600000000009431 0  0.5 0.1500000000009709 0  0.5 0.1400000000009986 0  0.5 0.1300000000010264 0  0.5 0.1200000000010541 0  0.5 0.1100000000010818 0  0.5 0.1000000000011096 0  0.5 0.09000000000113734 0  0.5 0.08000000000116503 0  0.5 0.07000000000119283 0  0.5 0.06000000000122058 0  0.5 0.05000000000124827 0  0.5 0.04000000000127607 0  0.5 0.03000000000130376 0  0.5 0.02000000000133151 0  0.5 0.01000000000135925 0  0.5 1.376121439022882e-12 0  0.5 -0.009999999998640763 0  0.5 -0.01999999999866864 0  0.5 -0.02999999999869629 0  0.5 -0.03999999999872406 0  0.5 -0.04999999999875182 0  0.5 -0.05999999999877947 0  0.5 -0.06999999999880724 0  0.5 -0.079999999998835 0  0.5 -0.08999999999886266 0  0.5 -0.09999999999889042 0  0.5 -0.1099999999989182 0  0.5 -0.1199999999989459 0  0.5 -0.1299999999989737 0  0.5 -0.1399999999990014 0  0.5 -0.1499999999990291 0  0.5 -0.1599999999990568 0  0.5 -0.1699999999990847 0  0.5 -0.1799999999991124 0  0.5 -0.1899999999991401 0  0.5 -0.1999999999991678 0  0.5 -0.2099999999991955 0  0.5 -0.2199999999992234 0  0.5 -0.2299999999992511 0  0.5 -0.2399999999992788 0  0.5 -0.2499999999993066 0  0.5 -0.2599999999993342 0  0.5 -0.269999999999362 0  0.5 -0.2799999999993897 0  0.5 -0.2899999999994175 0  0.5 -0.2999999999994452 0  0.5 -0.3099999999994729 0  0.5 -0.3199999999995007 0  0.5 -0.3299999999995284 0  0.5 -0.3399999999995562 0  0.5 -0.3499999999995839 0  0.5 -0.3599999999996116 0  0.5 -0.3699999999996393 0  0.5 -0.379999999999667 0  0.5 -0.3899999999996949 0  0.5 -0.3999999999997226 0  0.5 -0.4099999999997503 0  0.5 -0.419999999999778 0  0.5 -0.4299999999998058 0  0.5 -0.4399999999998336 0  0.5 -0.4499999999998613 0  0.5 -0.4599999999998891 0  0.5 -0.4699999999999167 0  0.5 -0.4799999999999445 0  0.5 -0.4899999999999722 0  0.4900000000000277 -0.5 0  0.4800000000000555 -0.5 0  0.4700000000000832 -0.5 0  0.4600000000001109 -0.5 0  0.4500000000001387 -0.5 0  0.4400000000001664 -0.5 0  0.4300000000001942 -0.5 0  0.4200000000002219 -0.5 0  0.4100000000002497 -0.5 0  0.4000000000002774 -0.5 0  0.3900000000003052 -0.5 0  0.3800000000003328 -0.5 0  0.3700000000003606 -0.5 0  0.3600000000003883 -0.5 0  0.3500000000004161 -0.5 0  0.3400000000004438 -0.5 0  0.3300000000004716 -0.5 0  0.3200000000004993 -0.5 0  0.3100000000005271 -0.5 0  0.3000000000005548 -0.5 0  0.2900000000005825 -0.5 0  0.2800000000006103 -0.5 0  0.2700000000006381 -0.5 0  0.2600000000006658 -0.5 0  0.2500000000006935 -0.5 0  0.2400000000007212 -0.5 0  0.230000000000749 -0.5 0  0.2200000000007767 -0.5 0  0.2100000000008044 -0.5 0  0.2000000000008322 -0.5 0  0.19000000000086 -0.5 0  0.1800000000008877 -0.5 0  0.1700000000009154 -0.5 0  0.1600000000009431 -0.5 0  0.1500000000009709 -0.5 0  0.1400000000009986 -0.5 0  0.1300000000010264 -0.5 0  0.1200000000010541 -0.5 0  0.1100000000010818 -0.5 0  0.1000000000011096 -0.5 0  0.09000000000113734 -0.5 0  0.08000000000116503 -0.5 0  0.07000000000119283 -0.5 0  0.06000000000122058 -0.5 0  0.05000000000124827 -0.5 0  0.04000000000127607 -0.5 0  0.03000000000130376 -0.5 0  0.02000000000133151 -0.5 0  0.01000000000135925 -0.5 0  1.376121439022882e-12 -0.5 0  -0.009999999998640763 -0.5 0  -0.01999999999866864 -0.5 0  -0.02999999999869629 -0.5 0  -0.03999999999872406 -0.5 0  -0.04999999999875182 -0.5 0  -0.05999999999877947 -0.5 0  -0.06999999999880724 -0.5 0  -0.079999999998835 -0.5 0  -0.08999999999886266 -0.5 0  -0.09999999999889042 -0.5 0  -0.1099999999989182 -0.5 0  -0.1199999999989459 -0.5 0  -0.1299999999989737 -0.5 0  -0.1399999999990014 -0.5 0  -0.1499999999990291 -0.5 0  -0.1599999999990568 -0.5 0  -0.1699999999990847 -0.5 0  -0.1799999999991124 -0.5 0  -0.1899999999991401 -0.5 0  -0.1999999999991678 -0.5 0  -0.2099999999991955 -0.5 0  -0.2199999999992234 -0.5 0  -0.2299999999992511 -0.5 0  -0.2399999999992788 -0.5 0  -0.2499999999993066 -0.5 0  -0.2599999999993342 -0.5 0  -0.269999999999362 -0.5 0  -0.2799999999993897 -0.5 0  -0.2899999999994175 -0.5 0  -0.2999999999994452 -0.5 0  -0.3099999999994729 -0.5 0  -0.3199999999995007 -0.5 0  -0.3299999999995284 -0.5 0  -0.3399999999995562 -0.5 0  -0.3499999999995839 -0.5 0  -0.3599999999996116 -0.5 0  -0.3699999999996393 -0.5 0  -0.379999999999667 -0.5 0  -0.3899999999996949 -0.5 0  -0.3999999999997226 -0.5 0  -0.4099999999997503 -0.5 0  -0.419999999999778 -0.5 0  -0.4299999999998058 -0.5 0  -0.4399999999998336 -0.5 0  -0.4499999999998613 -0.5 0  -0.4599999999998891 -0.5 0  -0.4699999999999167 -0.5 0  -0.4799999999999445 -0.5 0  -0.4899999999999722 -0.5 0  -0.5 -0.4900000000000277 0  -0.5 -0.4800000000000555 0  -0.5 -0.4700000000000832 0  -0.5 -0.4600000000001109 0  -0.5 -0.4500000000001387 0  -0.5 -0.4400000000001664 0  -0.5 -0.4300000000001942 0  -0.5 -0.4200000000002219 0  -0.5 -0.4100000000002497 0  -0.5 -0.4000000000002774 0  -0.5 -0.3900000000003052 0  -0.5 -0.3800000000003328 0  -0.5 -0.3700000000003606 0  -0.5 -0.3600000000003883 0  -0.5 -0.3500000000004161 0  -0.5 -0.3400000000004438 0  -0.5 -0.3300000000004716 0  -0.5 -0.3200000000004993 0  -0.5 -0.3100000000005271 0  -0.5 -0.3000000000005548 0  -0.5 -0.2900000000005825 0  -0.5 -0.2800000000006103 0  -0.5 -0.2700000000006381 0  -0.5 -0.2600000000006658 0  -0.5 -0.2500000000006935 0  -0.5 -0.2400000000007212 0  -0.5 -0.230000000000749 0  -0.5 -0.2200000000007767 0  -0.5 -0.2100000000008044 0  -0.5 -0.2000000000008322 0  -0.5 -0.19000000000086 0  -0.5 -0.1800000000008877 0  -0.5 -0.1700000000009154 0  -0.5 -0.1600000000009431 0  -0.5 -0.1500000000009709 0  -0.5 -0.1400000000009986 0  -0.5 -0.1300000000010264 0  -0.5 -0.1200000000010541 0  -0.5 -0.1100000000010818 0  -0.5 -0.1000000000011096 0  -0.5 -0.09000000000113734 0  -0.5 -0.08000000000116503 0  -0.5 -0.07000000000119283 0  -0.5 -0.06000000000122058 0  -0.5 -0.05000000000124827 0  -0.5 -0.04000000000127607 0  -0.5 -0.03000000000130376 0  -0.5 -0.02000000000133151 0  -0.5 -0.01000000000135925 0  -0.5 -1.376121439022882e-12 0  -0.5 0.009999999998640763 0  -0.5 0.01999999999866864 0  -0.5 0.02999999999869629 0  -0.5 0.03999999999872406 0  -0.5 0.04999999999875182 0  -0.5 0.05999999999877947 0  -0.5 0.06999999999880724 0  -0.5 0.079999999998835 0  -0.5 0.08999999999886266 0  -0.5 0.09999999999889042
[...]
<PointData  Vectors="f_27-0"> 
<DataArray  type="Float64"  Name="f_27-0"  NumberOfComponents="3" format="ascii">7.5717913802064610e-04 4.4425387392870025e-02 0.0000000000000000e+00  -1.0984697087779969e-03 4.4361772382929529e-02 0.0000000000000000e+00  2.3454587280609740e-04 4.0926111760418445e-02 0.0000000000000000e+00  -4.5489296489790263e-05 4.0883582576573409e-02 0.0000000000000000e+00  -1.5783565776048077e-03 6.4889906142052960e-03 0.0000000000000000e+00  1.5893653856729210e-03 6.4336615035451364e-03 0.0000000000000000e+00  -1.3039513058156974e-03 6.5215859873180015e-03 0.0000000000000000e+00  1.3804537622991370e-03 6.3978699686532969e-03 0.0000000000000000e+00  1.8388877395708757e-03 4.3786993959689179e-02 0.0000000000000000e+00  2.8851907047784280e-03 4.3083843250240735e-02 0.0000000000000000e+00  3.8916803729425087e-03 4.2319668612907944e-02 0.0000000000000000e+00  4.8556331344859959e-03 4.1497708021253833e-02 0.0000000000000000e+00  5.7725052139095939e-03 4.0622493532440497e-02 0.0000000000000000e+00  6.6406016777462457e-03 3.9697419573965088e-02 0.0000000000000000e+00  7.4559272062460604e-03 3.8728354427602280e-02 0.0000000000000000e+00  8.2173951287506323e-03 3.7719246815276795e-02 0.0000000000000000e+00  8.9223787759368824e-03 3.6674914512899039e-02 0.0000000000000000e+00  9.5686622625552175e-03 3.5600564778567795e-02 0.0000000000000000e+00  1.0156541791409294e-02 3.4501473194316568e-02 0.0000000000000000e+00  1.0684829644966903e-02 3.3382131317986147e-02 0.0000000000000000e+00  1.1153003296129173e-02 3.2247920422921017e-02 0.0000000000000000e+00  1.1561699178175313e-02 3.1102526859252137e-02 0.0000000000000000e+00  1.1910013695203531e-02 2.9952755216365545e-02 0.0000000000000000e+00  1.2199952971853363e-02 2.8801578361011149e-02 0.0000000000000000e+00  1.2432129484957206e-02 2.7653106740761841e-02 0.0000000000000000e+00  1.2607383173460916e-02 2.6512639297111028e-02 0.0000000000000000e+00  1.2727612988671404e-02 2.5383991099233831e-02 0.0000000000000000e+00  1.2794632910243501e-02 2.4269659404066432e-02 0.0000000000000000e+00  1.2809799709826679e-02 2.3173749422473376e-02 0.0000000000000000e+00  1.2775567201349985e-02 2.2098802931078722e-02 0.0000000000000000e+00  1.2693942090933314e-02 2.1047532534669035e-02 0.0000000000000000e+00  1.2566702643826731e-02 2.0023906551725541e-02 0.0000000000000000e+00  1.2396362884053453e-02 1.9028872019752188e-02 0.0000000000000000e+00  1.2185495822083670e-02 1.8064700162355438e-02 0.0000000000000000e+00  1.1935872755789412e-02 1.7133263592417569e-02 0.0000000000000000e+00  1.1649915581120281e-02 1.6236671719109374e-02 0.0000000000000000e+00  1.1330123606408872e-02 1.5374739711015708e-02 0.0000000000000000e+00  1.0978696299996057e-02 1.4549883192091986e-02 0.0000000000000000e+00  1.0597523461184326e-02 1.3762725606817336e-02 0.0000000000000000e+00  1.0189018551317010e-02 1.3014066151133789e-02 0.0000000000000000e+00  9.7550913028062302e-03 1.2305087983891787e-02 0.0000000000000000e+00  9.2979042163666824e-03 1.1635538814180222e-02 0.0000000000000000e+00  8.8189545492764754e-03 1.1005832657948272e-02 0.0000000000000000e+00  8.3203200612427010e-03 1.0415733910999559e-02 0.0000000000000000e+00  7.8039466016535984e-03 9.8670365026483683e-03 0.0000000000000000e+00  7.2709702072434844e-03 9.3585634470715415e-03 0.0000000000000000e+00  6.7234190406605526e-03 8.8901987522249908e-03 0.0000000000000000e+00  6.1626549462469133e-03 8.4631297893686397e-03 0.0000000000000000e+00  5.5905241462098606e-03 8.0765960740241081e-03 0.0000000000000000e+00  5.0081282082689764e-03 7.7300749211802562e-03 0.0000000000000000e+00  4.4163347115081250e-03 7.4246038977013830e-03 0.0000000000000000e+00  3.8167707204162888e-03 7.1591406556569259e-03 0.0000000000000000e+00  3.2104813812314859e-03 6.9341365424494417e-03 0.0000000000000000e+00  2.5985527849117169e-03 6.7488354948062367e-03 0.0000000000000000e+00  1.9826127526937605e-03 6.6040723527197743e-03 0.0000000000000000e+00  1.3632390927095777e-03 6.4990114958615097e-03 0.0000000000000000e+00  7.4207773242198011e-04 6.4336305735864675e-03 0.0000000000000000e+00  1.1913279975492672e-04 6.4086703343051521e-03 0.0000000000000000e+00  -5.0389048023673406e-04 6.4233216531984858e-03 0.0000000000000000e+00  -1.1257266418159904e-03 6.4771509958398915e-03 0.0000000000000000e+00  -1.7457479112568427e-03 6.5708587971123420e-03 0.0000000000000000e+00  -2.3626876736835079e-03 6.7048757392623951e-03 0.0000000000000000e+00  -2.9757710686657097e-03 6.8791892128148412e-03 0.0000000000000000e+00  -3.5836224262609955e-03 7.0932681019514375e-03 0.0000000000000000e+00  -4.1852280521681795e-03 7.3474801223217924e-03 0.0000000000000000e+00  -4.7792416547989304e-03 7.6418704524690156e-03 0.0000000000000000e+00  -5.3649009654182893e-03 7.9769968475380641e-03 0.0000000000000000e+00  -5.9406744361656487e-03 8.3519648950854241e-03 0.0000000000000000e+00  -6.5049251043166221e-03 8.7680897673926075e-03 0.0000000000000000e+00  -7.0568969849914044e-03 9.2243953646748769e-03 0.0000000000000000e+00  -7.5945378792405382e-03 9.7210670009368789e-03 0.0000000000000000e+00  -8.1164282144962022e-03 1.0258349662017250e-02 0.0000000000000000e+00  -8.6212192167603834e-03 1.0836000196110701e-02 0.0000000000000000e+00  -9.1067696081786609e-03 1.1453749584954064e-02 0.0000000000000000e+00  -9.5718302260469536e-03 1.2111831430685354e-02 0.0000000000000000e+00  -1.0013743152001283e-02 1.2809809392791544e-02 0.0000000000000000e+00  -1.0431608007726842e-02 1.3546646870049368e-02 0.0000000000000000e+00  -1.0822243242716474e-02 1.4322460595657879e-02 0.0000000000000000e+00  -1.1184326050460998e-02 1.5137058133684001e-02 0.0000000000000000e+00  -1.1515906904119183e-02 1.5987587272160920e-02 0.0000000000000000e+00  -1.1814208647506735e-02 1.6873638540009776e-02 0.0000000000000000e+00  -1.2077513169585592e-02 1.7795240630800513e-02 0.0000000000000000e+00  -1.2302755720393060e-02 1.8750333832320540e-02 0.0000000000000000e+00  -1.2489073395927757e-02 1.9737024178595308e-02 0.0000000000000000e+00  -1.2632390657820947e-02 2.0753842905087232e-02 0.0000000000000000e+00  -1.2731688502049214e-02 2.1796969037217583e-02 0.0000000000000000e+00  -1.2784207280947821e-02 2.2866047377759314e-02 0.0000000000000000e+00  -1.2787896333521455e-02 2.3957658934452408e-02 0.0000000000000000e+00  -1.2740947360066973e-02 2.5068667508246708e-02 0.0000000000000000e+00  -1.2641016159603629e-02 2.6195586515155852e-02 0.0000000000000000e+00  -1.2486647781284744e-02 2.7335442492208060e-02 0.0000000000000000e+00  -1.2275672606199411e-02 2.8485232242896272e-02 0.0000000000000000e+00  -1.2007808832213064e-02 2.9638753738257594e-02 0.0000000000000000e+00  -1.1681245389212508e-02 3.0793254018897084e-02 0.0000000000000000e+00  -1.1294755748060360e-02 3.1944614333157553e-02 0.0000000000000000e+00  -1.0848266242991225e-02 3.3087442338934944e-02 0.0000000000000000e+00  -1.0341521256115687e-02 3.4216876746553292e-02 0.0000000000000000e+00  -9.7747569941779213e-03 3.5327861714968115e-02 0.0000000000000000e+00  -9.1483460782154132e-03 3.6415628327156127e-02 0.0000000000000000e+00  -8.4624277656003884e-03 3.7475956453739100e-02 0.0000000000000000e+00  -7.7192986229171045e-03 3.8502686697772764e-02 0.0000000000000000e+00  -6.9204153830372981e-03 3.9491344748631231e-02 0.0000000000000000e+00  -6.0673715897388604e-03 4.0437475698133267e-02 0.0000000000000000e+00  -5.1640525631068603e-03 4.1334613258771767e-02 0.0000000000000000e+00  -4.2114853117716173e-03 4.2180116470897651e-02 0.0000000000000000e+00  -3.2139398673527307e-03 4.2968678810685890e-02 0.0000000000000000e+00  -2.1751161862378510e-03 4.3696936060503629e-02 0.0000000000000000e+00  -1.3377813748221782e-03 4.5482201729274620e-02 0.0000000000000000e+00  -1.5936534035379665e-03 4.6655769433707937e-02 0.0000000000000000e+00  -1.8660961163248946e-03 4.7888632674634425e-02 0.0000000000000000e+00  -2.1561864492528832e-03 4.9182006767960473e-02 0.0000000000000000e+00  -2.4651565205785968e-03 5.0542129825378361e-02 0.0000000000000000e+00  -2.7964134202730752e-03 5.1971164025529717e-02 0.0000000000000000e+00  -3.1449569575930500e-03 5.3473625453743144e-02 0.0000000000000000e+00  -3.5172974688832217e-03 5.5055531118209274e-02 0.0000000000000000e+00  -3.9139734213374348e-03 5.6720653669914099e-02 0.0000000000000000e+00  -4.3337526818956855e-03 5.8476786600892026e-02 0.0000000000000000e+00  -4.7802642425429720e-03 6.0328948591323969e-02 0.0000000000000000e+00  -5.2553159257944758e-03 6.2282413743221569e-02 0.0000000000000000e+00  -5.7600493604288245e-03 6.4346730879817585e-02 0.0000000000000000e+00  -6.2986179724091804e-03 6.6525712343279586e-02 0.0000000000000000e+00  -6.8693160325095448e-03 6.8831426268721393e-02 0.0000000000000000e+00  -7.4787232104466649e-03 7.1271520684992470e-02 0.0000000000000000e+00  -8.1310895636767071e-03 7.3851592149801137e-02 0.0000000000000000e+00  -8.8229013551468123e-03 7.6585796804685038e-02 0.0000000000000000e+00  -9.5613097444048646e-03 7.9480651436276500e-02 0.0000000000000000e+00  -1.0352826525222854e-02 8.2542730020979574e-02 0.0000000000000000e+00  -1.1196636427723608e-02 8.5786325176697639e-02 0.0000000000000000e+00  -1.2098605919181582e-02 8.9214314362903072e-02 0.0000000000000000e+00  -1.3058209675497848e-02 9.2834472048547764e-02 0.0000000000000000e+00  -1.4069501485963080e-02 9.6649071401954792e-02 0.0000000000000000e+00  -1.5124092328238043e-02 1.0066452634887077e-01 0.0000000000000000e+00  -1.6214492689668250e-02 1.0486138183832136e-01 0.0000000000000000e+00  -1.7300250134058628e-02 1.0923640653303748e-01 0.0000000000000000e+00  -1.8352654661543271e-02 1.1375899591834432e-01 0.0000000000000000e+00  -1.9281346148622858e-02 1.1838348988027925e-01 0.0000000000000000e+00  -1.9994119444375128e-02 1.2306011519938106e-01 0.0000000000000000e+00  -2.0346999715993824e-02 1.2770743676003904e-01 0.0000000000000000e+00  -2.0136739893376748e-02 1.3220515829083154e-01 0.0000000000000000e+00  -1.9096697980760129e-02 1.3641120629200970e-01 0.0000000000000000e+00  -1.6921745724634132e-02 1.4013043463700139e-01 0.0000000000000000e+00  -1.3208645080879967e-02 1.4311558519995321e-01 0.0000000000000000e+00  -7.5037598547117333e-03 1.4508855526287337e-01 0.0000000000000000e+00  6.3220865474292707e-04 1.4567591012865122e-01 0.0000000000000000e+00  1.1573983219622398e-02 1.4456136640960165e-01 0.0000000000000000e+00  2.5382738864160179e-02 1.4127438032012735e-01 0.0000000000000000e+00  4.1585803699906561e-02 1.3562536092638383e-01 0.0000000000000000e+00  5.8736122421072512e-02 1.2727202505427931e-01 0.0000000000000000e+00  7.4024246490595830e-02 1.1642098785355726e-01 0.0000000000000000e+00  8.2790991491135293e-02 1.0319906676780097e-01 0.0000000000000000e+00  8.0157704514179126e-02 8.8524577623719972e-02 0.0000000000000000e+00  6.0707808979169997e-02 7.3590191477766714e-02 0.0000000000000000e+00  2.3116007727759562e-02 6.1162385393660736e-02 0.0000000000000000e+00  -2.6514280766594244e-02 5.6844398017540362e-02 0.0000000000000000e+00  -7.0157110065869263e-02 6.4926364076792614e-02 0.0000000000000000e+00  -8.9007712101242725e-02 8.6179133260713872e-02 0.0000000000000000e+00  -8.1285332204937416e-02 1.1182692689185243e-01 0.0000000000000000e+00  -6.3487384060140553e-02 1.3274428980189495e-01 0.0000000000000000e+00  -4.6602985830903991e-02 1.4720443530831279e-01 0.0000000000000000e+00  -3.2903355199310841e-02 1.5623860249734386e-01 0.0000000000000000e+00  -2.1897745958827812e-02 1.6142902024803210e-01 0.0000000000000000e+00  -1.3054688270236713e-02 1.6385139137263963e-01 0.0000000000000000e+00  -5.8997935736069748e-03 1.6420808329244047e-01 0.0000000000000000e+00  -1.6713379772003323e-04 1.6299778942394194e-01 0.0000000000000000e+00  4.3738888687858022e-03 1.6058975980991658e-01 0.0000000000000000e+00  7.8737000364268797e-03 1.5730076430562284e-01 0.0000000000000000e+00  1.0510349584046489e-02 1.5334990034391774e-01 0.0000000000000000e+00  1.2412105382811298e-02 1.4893640800930308e-01 0.0000000000000000e+00  1.3706286072272394e-02 1.4421461924958148e-01 0.0000000000000000e+00  1.4502734461957965e-02 1.3931639427499332e-01 0.0000000000000000e+00  1.4899321780918134e-02 1.3433589384026440e-01 0.0000000000000000e+00  1.4984173518314865e-02 1.2935773019824914e-01 0.0000000000000000e+00  1.4831875161866835e-02 1.2443950471650646e-01 0.0000000000000000e+00  1.4498727995367115e-02 1.1963297820035732e-01 0.0000000000000000e+00  1.4041897757731745e-02 1.1495660117572190e-01 0.0000000000000000e+00  1.3497803137600571e-02 1.1045090727337029e-01 0.0000000000000000e+00  1.2899838356590148e-02 1.0611625491001930e-01 0.0000000000000000e+00  1.2267877943551673e-02 1.0196990488895258e-01 0.0000000000000000e+00  1.1617989976441047e-02 9.8014120733591531e-02 0.0000000000000000e+00  1.0962745336708079e-02 9.4253186906733288e-02 0.0000000000000000e+00  1.0316176153247833e-02 9.0675321691943020e-02 0.0000000000000000e+00  9.6859301941954329e-03 8.7274661225416758e-02 0.0000000000000000e+00  9.0704755863322238e-03 8.4056262578081145e-02 0.0000000000000000e+00  8.4795337651704487e-03 8.0998931959359574e-02 0.0000000000000000e+00  7.9032115025171410e-03 7.8105089844297940e-02 0.0000000000000000e+00  7.3515614356494648e-03 7.5360442790676468e-02 0.0000000000000000e+00  6.8228867149160597e-03 7.2760200257818611e-02 0.0000000000000000e+00  6.3153721534167035e-03 7.0295606638722571e-02 0.0000000000000000e+00  5.8298882550708794e-03 6.7957308655457571e-02 0.0000000000000000e+00  5.3666817240112293e-03 6.5740813538889539e-02 0.0000000000000000e+00  4.9254184009613639e-03 6.3635051273833829e-02 0.0000000000000000e+00  4.5014765669072684e-03 6.1638032646627178e-02 0.0000000000000000e+00  4.0982426839615256e-03 5.9739102825399494e-02 0.0000000000000000e+00  3.7156367738333707e-03 5.7935144949225387e-02 0.0000000000000000e+00  3.3516494156351261e-03 5.6218368228992330e-02 0.0000000000000000e+00  3.0051769511576744e-03 5.4586219029895681e-02 0.0000000000000000e+00  2.6745126715591815e-03 5.3031476708016362e-02 0.0000000000000000e+00  2.3617171983061104e-03 5.1551090953790277e-02 0.0000000000000000e+00  2.0665375523098144e-03 5.0139130586697035e-02 0.0000000000000000e+00  1.7869562252256237e-03 4.8793426624072586e-02 0.0000000000000000e+00  1.5227229106354755e-03 4.7509497291316469e-02 0.0000000000000000e+00  1.2740114565743985e-03 4.6284042531729630e-02 0.0000000000000000e+00  1.0385109458075925e-03 4.5114298942048242e-02 0.0000000000000000e+00  8.1694969992265507e-04 4.3995832081256334e-02 0.0000000000000000e+00  6.0953066188452858e-04 4.2926313253145415e-02 0.0000000000000000e+00  4.1513738194225250e-04 4.1903965537790806e-02 0.0000000000000000e+00  1.1758948997716465e-03 4.0357815265246573e-02 0.0000000000000000e+00  2.0866146733890308e-03 3.9734745186384396e-02 0.0000000000000000e+00  2.9640327008679090e-03 3.9059818172524179e-02 0.0000000000000000e+00  3.8047221468297692e-03 3.8336939055840277e-02 0.0000000000000000e+00  4.6065250706637789e-03 3.7568251656615509e-02 0.0000000000000000e+00  5.3667334237940123e-03 3.6758533873085551e-02 0.0000000000000000e+00  6.0831941924291361e-03 3.5910035758623733e-02 0.0000000000000000e+00  6.7542557744707877e-03 3.5027739962359757e-02 0.0000000000000000e+00  7.3773535826855965e-03 3.4115302346381222e-02 0.0000000000000000e+00  7.9528350118046685e-03 3.3175277199534829e-02 0.0000000000000000e+00  8.4786024818650409e-03 3.2213069077092385e-02 0.0000000000000000e+00  8.9542868156970868e-03 3.1233551368945945e-02 0.0000000000000000e+00  9.3789412599629175e-03 3.0239267386489653e-02 0.0000000000000000e+00  9.7524352737729334e-03 2.9235014979059979e-02 0.0000000000000000e+00  1.0075849487542607e-02 2.8223398103108057e-02 0.0000000000000000e+00  1.0348943872325798e-02 2.7209594502891527e-02 0.0000000000000000e+00  1.0572032701880833e-02 2.6196828778308454e-02 0.0000000000000000e+00  1.0746881375898572e-02 2.5188724139703068e-02 0.0000000000000000e+00  1.0873506974137704e-02 2.4188099206591377e-02 0.0000000000000000e+00  1.0953686066429408e-02 2.3198664544081010e-02 0.0000000000000000e+00  1.0988658983538444e-02 2.2223101948846510e-02 0.0000000000000000e+00  1.0979817743791927e-02 2.1264715395234210e-02 0.0000000000000000e+00  1.0928559044860842e-02 2.0326033617170992e-02 0.0000000000000000e+00  1.0837165034643872e-02 1.9408352292693234e-02 0.0000000000000000e+00  1.0706898189786639e-02 1.8514767249514553e-02 0.0000000000000000e+00  1.0539599220011560e-02 1.7647011097314296e-02 0.0000000000000000e+00  1.0337247283955893e-02 1.6807196991399532e-02 0.0000000000000000e+00  1.0101636642078891e-02 1.5995718676894359e-02 0.0000000000000000e+00  9.8345575432071779e-03 1.5215575295072673e-02 0.0000000000000000e+00  9.5379250244759638e-03 1.4467312916035542e-02 0.0000000000000000e+00  9.2137433423002089e-03 1.3751720977836085e-02 0.0000000000000000e+00  8.8637877667461906e-03 1.3069856666387342e-02 0.0000000000000000e+00  8.4898235363694598e-03 1.2422479055405201e-02 0.0000000000000000e+00  8.0933029422391011e-03 1.1810850792112425e-02 0.0000000000000000e+00  7.6761033579076975e-03 1.1234605457111925e-02 0.0000000000000000e+00  7.2402193461828740e-03 1.0695179309017476e-02 0.0000000000000000e+00  6.7865275060421393e-03 1.0192292813672958e-02 0.0000000000000000e+00  6.3170287591060616e-03 9.7262144642158693e-03 0.0000000000000000e+00  5.8329950970320236e-03 9.2971814576908417e-03 0.0000000000000000e+00  5.3362555778538046e-03 8.9052451743301137e-03 0.0000000000000000e+00  4.8281503417350099e-03 8.5513168301565926e-03 0.0000000000000000e+00  4.3097049265762005e-03 8.2359053180397265e-03 0.0000000000000000e+00  3.7822705633363098e-03 7.9570788077219616e-03 0.0000000000000000e+00  3.2468980867080182e-03 7.7160533002624083e-03 0.0000000000000000e+00  2.7048779547586077e-03 7.5127920813332760e-03 0.0000000000000000e+00  2.1576520117508424e-03 7.3469820362503883e-03 0.0000000000000000e+00  1.6060536178694469e-03 7.2184352476700958e-03 0.0000000000000000e+00  1.0516979638906375e-03 7.1278722038497517e-03 0.0000000000000000e+00  4.9538716556324954e-04 7.0756589639760408e-03 0.0000000000000000e+00  -6.2101746529145637e-05 7.0608156212361084e-03 0.0000000000000000e+00  -6.1945676989286029e-04 7.0829656971586920e-03 0.0000000000000000e+00  -1.1754965432780487e-03 7.1431658510429444e-03 0.0000000000000000e+00  -1.7288256214048078e-03 7.2414316372519643e-03 0.0000000000000000e+00  -2.2786453605652727e-03 7.3772774924917104e-03 0.0000000000000000e+00  -2.8238929842526505e-03 7.5504603861752152e-03 0.0000000000000000e+00  -3.3637376257330230e-03 7.7611172692939167e-03 0.0000000000000000e+00  -3.8963859597097813e-03 8.0090234574720261e-03 0.0000000000000000e+00  -4.4209898947385907e-03 8.2950441564284411e-03 0.0000000000000000e+00  -4.9361835042230759e-03 8.6187787791034975e-03 0.0000000000000000e+00  -5.4406173998061934e-03 8.9802564231463624e-03 0.0000000000000000e+00  -5.9331639737754023e-03 9.3782426094033734e-03 0.0000000000000000e+00  -6.4120391699064123e-03 9.8140614441855102e-03 0.0000000000000000e+00  -6.8765975743542446e-03 1.0286630598810697e-02 0.0000000000000000e+00  -7.3245923320152742e-03 1.0795926511238259e-02 0.0000000000000000e+00  -7.7547160031176798e-03 1.1342063049609720e-02 0.0000000000000000e+00  -8.1655199133682556e-03 1.1924303534295128e-02 0.0000000000000000e+00  -8.5548509898111264e-03 1.2541869930625206e-02 0.0000000000000000e+00  -8.9218263545268947e-03 1.3194089291541415e-02 0.0000000000000000e+00  -9.2637640289511911e-03 1.3880697856530146e-02 0.0000000000000000e+00  -9.5799703983240544e-03 1.4600520213141540e-02 0.0000000000000000e+00  -9.8679527628341718e-03 1.5352622219037276e-02 0.0000000000000000e+00  -1.0125855922965997e-02 1.6136716002243111e-02 0.0000000000000000e+00  -1.0351986197188802e-02 1.6951074192944469e-02 0.0000000000000000e+00  -1.0544747380487114e-02 1.7793203571501121e-02 0.0000000000000000e+00  -1.0702013051349294e-02 1.8663075385163885e-02 0.0000000000000000e+00  -1.0822029600796507e-02 1.9558387688636967e-02 0.0000000000000000e+00  -1.0903474654663920e-