<?xml version="1.0"?>
<VTKFile type="UnstructuredGrid"  version="0.1"  >
<UnstructuredGrid>
<Piece  NumberOfPoints="16275" NumberOfCells="32468">
<Points>
<DataArray  type="Float64"  NumberOfComponents="3"  format="ascii">-0.5 0.5 0  0.5 0.5 0  0.5 -0.5 0  -0.5 -0.5 0  -1 1 0  1 1 0  1 -1 0  -1 -1 0  -0.4900000000000277 0.5 0  -0.4800000000000555 0.5 0  -0.4700000000000832 0.5 0  -0.4600000000001109 0.5 0  -0.4500000000001387 0.5 0  -0.4400000000001664 0.5 0  -0.4300000000001942 0.5 0  -0.4200000000002219 0.5 0  -0.4100000000002497 0.5 0  -0.4000000000002774 0.5 0  -0.3900000000003052 0.5 0  -0.3800000000003328 0.5 0  -0.3700000000003606 0.5 0  -0.3600000000003883 0.5 0  -0.3500000000004161 0.5 0  -0.3400000000004438 0.5 0  -0.3300000000004716 0.5 0  -0.3200000000004993 0.5 0  -0.3100000000005271 0.5 0  -0.3000000000005548 0.5 0  -0.2900000000005825 0.5 0  -0.2800000000006103 0.5 0  -0.2700000000006381 0.5 0  -0.2600000000006658 0.5 0  -0.2500000000006935 0.5 0  -0.2400000000007212 0.5 0  -0.230000000000749 0.5 0  -0.2200000000007767 0.5 0  -0.2100000000008044 0.5 0  -0.2000000000008322 0.5 0  -0.19000000000086 0.5 0  -0.1800000000008877 0.5 0  -0.1700000000009154 0.5 0  -0.1600000000009431 0.5 0  -0.1500000000009709 0.5 0  -0.1400000000009986 0.5 0  -0.1300000000010264 0.5 0  -0.1200000000010541 0.5 0  -0.1100000000010818 0.5 0  -0.1000000000011096 0.5 0  -0.09000000000113734 0.5 0  -0.08000000000116503 0.5 0  -0.07000000000119283 0.5 0  -0.06000000000122058 0.5 0  -0.05000000000124827 0.5 0  -0.04000000000127607 0.5 0  -0.03000000000130376 0.5 0  -0.02000000000133151 0.5 0  -0.01000000000135925 0.5 0  -1.376121439022882e-12 0.5 0  0.009999999998640763 0.5 0  0.01999999999866864 0.5 0  0.02999999999869629 0.5 0  0.03999999999872406 0.5 0  0.04999999999875182 0.5 0  0.05999999999877947 0.5 0  0.06999999999880724 0.5 0  0.079999999998835 0.5 0  0.08999999999886266 0.5 0  0.09999999999889042 0.5 0  0.1099999999989182 0.5 0  0.1199999999989459 0.5 0  0.1299999999989737 0.5 0  0.1399999999990014 0.5 0  0.1499999999990291 0.5 0  0.1599999999990568 0.5 0  0.1699999999990847 0.5 0  0.1799999999991124 0.5 0  0.1899999999991401 0.5 0  0.1999999999991678 0.5 0  0.2099999999991955 0.5 0  0.2199999999992234 0.5 0  0.2299999999992511 0.5 0  0.2399999999992788 0.5 0  0.2499999999993066 0.5 0  0.2599999999993342 0.5 0  0.269999999999362 0.5 0  0.2799999999993897 0.5 0  0.2899999999994175 0.5 0  0.2999999999994452 0.5 0  0.3099999999994729 0.5 0  0.3199999999995007 0.5 0  0.3299999999995284 0.5 0  0.3399999999995562 0.5 0  0.3499999999995839 0.5 0  0.3599999999996116 0.5 0  0.3699999999996393 0.5 0  0.379999999999667 0.5 0  0.3899999999996949 0.5 0  0.3999999999997226 0.5 0  0.4099999999997503 0.5 0  0.419999999999778 0.5 0  0.4299999999998058 0.5 0  0.4399999999998336 0.5 0  0.4499999999998613 0.5 0  0.4599999999998891 0.5 0  0.4699999999999167 0.5 0  0.4799999999999445 0.5 0  0.4899999999999722 0.5 0  0.5 0.4900000000000277 0  0.5 0.4800000000000555 0  0.5 0.4700000000000832 0  0.5 0.4600000000001109 0  0.5 0.4500000000001387 0  0.5 0.4400000000001664 0  0.5 0.4300000000001942 0  0.5 0.4200000000002219 0  0.5 0.4100000000002497 0  0.5 0.4000000000002774 0  0.5 0.3900000000003052 0  0.5 0.3800000000003328 0  0.5 0.3700000000003606 0  0.5 0.3600000000003883 0  0.5 0.3500000000004161 0  0.5 0.3400000000004438 0  0.5 0.3300000000004716 0  0.5 0.3200000000004993 0  0.5 0.3100000000005271 0  0.5 0.3000000000005548 0  0.5 0.2900000000005825 0  0.5 0.2800000000006103 0  0.5 0.2700000000006381 0  0.5 0.2600000000006658 0  0.5 0.2500000000006935 0  0.5 0.2400000000007212 0  0.5 0.230000000000749 0  0.5 0.2200000000007767 0  0.5 0.2100000000008044 0  0.5 0.2000000000008322 0  0.5 0.19000000000086 0  0.5 0.1800000000008877 0  0.5 0.1700000000009154 0  0.5 0.1600000000009431 0  0.5 0.1500000000009709 0  0.5 0.1400000000009986 0  0.5 0.1300000000010264 0  0.5 0.1200000000010541 0  0.5 0.1100000000010818 0  0.5 0.1000000000011096 0  0.5 0.09000000000113734 0  0.5 0.08000000000116503 0  0.5 0.07000000000119283 0  0.5 0.06000000000122058 0  0.5 0.05000000000124827 0  0.5 0.04000000000127607 0  0.5 0.03000000000130376 0  0.5 0.02000000000133151 0  0.5 0.01000000000135925 0  0.5 1.376121439022882e-12 0  0.5 -0.009999999998640763 0  0.5 -0.01999999999866864 0  0.5 -0.02999999999869629 0  0.5 -0.03999999999872406 0  0.5 -0.04999999999875182 0  0.5 -0.05999999999877947 0  0.5 -0.06999999999880724 0  0.5 -0.079999999998835 0  0.5 -0.08999999999886266 0  0.5 -0.09999999999889042 0  0.5 -0.1099999999989182 0  0.5 -0.1199999999989459 0  0.5 -0.1299999999989737 0  0.5 -0.1399999999990014 0  0.5 -0.1499999999990291 0  0.5 -0.1599999999990568 0  0.5 -0.1699999999990847 0  0.5 -0.1799999999991124 0  0.5 -0.1899999999991401 0  0.5 -0.1999999999991678 0  0.5 -0.2099999999991955 0  0.5 -0.2199999999992234 0  0.5 -0.2299999999992511 0  0.5 -0.2399999999992788 0  0.5 -0.2499999999993066 0  0.5 -0.2599999999993342 0  0.5 -0.269999999999362 0  0.5 -0.2799999999993897 0  0.5 -0.2899999999994175 0  0.5 -0.2999999999994452 0  0.5 -0.3099999999994729 0  0.5 -0.3199999999995007 0  0.5 -0.3299999999995284 0  0.5 -0.3399999999995562 0  0.5 -0.3499999999995839 0  0.5 -0.3599999999996116 0  0.5 -0.3699999999996393 0  0.5 -0.379999999999667 0  0.5 -0.3899999999996949 0  0.5 -0.3999999999997226 0  0.5 -0.4099999999997503 0  0.5 -0.419999999999778 0  0.5 -0.4299999999998058 0  0.5 -0.4399999999998336 0  0.5 -0.4499999999998613 0  0.5 -0.4599999999998891 0  0.5 -0.4699999999999167 0  0.5 -0.4799999999999445 0  0.5 -0.4899999999999722 0  0.4900000000000277 -0.5 0  0.4800000000000555 -0.5 0  0.4700000000000832 -0.5 0  0.4600000000001109 -0.5 0  0.4500000000001387 -0.5 0  0.4400000000001664 -0.5 0  0.4300000000001942 -0.5 0  0.4200000000002219 -0.5 0  0.4100000000002497 -0.5 0  0.4000000000002774 -0.5 0  0.3900000000003052 -0.5 0  0.3800000000003328 -0.5 0  0.3700000000003606 -0.5 0  0.3600000000003883 -0.5 0  0.3500000000004161 -0.5 0  0.3400000000004438 -0.5 0  0.3300000000004716 -0.5 0  0.3200000000004993 -0.5 0  0.3100000000005271 -0.5 0  0.3000000000005548 -0.5 0  0.2900000000005825 -0.5 0  0.2800000000006103 -0.5 0  0.2700000000006381 -0.5 0  0.2600000000006658 -0.5 0  0.2500000000006935 -0.5 0  0.2400000000007212 -0.5 0  0.230000000000749 -0.5 0  0.2200000000007767 -0.5 0  0.2100000000008044 -0.5 0  0.2000000000008322 -0.5 0  0.19000000000086 -0.5 0  0.1800000000008877 -0.5 0  0.1700000000009154 -0.5 0  0.1600000000009431 -0.5 0  0.1500000000009709 -0.5 0  0.1400000000009986 -0.5 0  0.1300000000010264 -0.5 0  0.1200000000010541 -0.5 0  0.1100000000010818 -0.5 0  0.1000000000011096 -0.5 0  0.09000000000113734 -0.5 0  0.08000000000116503 -0.5 0  0.07000000000119283 -0.5 0  0.06000000000122058 -0.5 0  0.05000000000124827 -0.5 0  0.04000000000127607 -0.5 0  0.03000000000130376 -0.5 0  0.02000000000133151 -0.5 0  0.01000000000135925 -0.5 0  1.376121439022882e-12 -0.5 0  -0.009999999998640763 -0.5 0  -0.01999999999866864 -0.5 0  -0.02999999999869629 -0.5 0  -0.03999999999872406 -0.5 0  -0.04999999999875182 -0.5 0  -0.05999999999877947 -0.5 0  -0.06999999999880724 -0.5 0  -0.079999999998835 -0.5 0  -0.08999999999886266 -0.5 0  -0.09999999999889042 -0.5 0  -0.1099999999989182 -0.5 0  -0.1199999999989459 -0.5 0  -0.1299999999989737 -0.5 0  -0.1399999999990014 -0.5 0  -0.1499999999990291 -0.5 0  -0.1599999999990568 -0.5 0  -0.1699999999990847 -0.5 0  -0.1799999999991124 -0.5 0  -0.1899999999991401 -0.5 0  -0.1999999999991678 -0.5 0  -0.2099999999991955 -0.5 0  -0.2199999999992234 -0.5 0  -0.2299999999992511 -0.5 0  -0.2399999999992788 -0.5 0  -0.2499999999993066 -0.5 0  -0.2599999999993342 -0.5 0  -0.269999999999362 -0.5 0  -0.2799999999993897 -0.5 0  -0.2899999999994175 -0.5 0  -0.2999999999994452 -0.5 0  -0.3099999999994729 -0.5 0  -0.3199999999995007 -0.5 0  -0.3299999999995284 -0.5 0  -0.3399999999995562 -0.5 0  -0.3499999999995839 -0.5 0  -0.3599999999996116 -0.5 0  -0.3699999999996393 -0.5 0  -0.379999999999667 -0.5 0  -0.3899999999996949 -0.5 0  -0.3999999999997226 -0.5 0  -0.4099999999997503 -0.5 0  -0.419999999999778 -0.5 0  -0.4299999999998058 -0.5 0  -0.4399999999998336 -0.5 0  -0.4499999999998613 -0.5 0  -0.4599999999998891 -0.5 0  -0.4699999999999167 -0.5 0  -0.4799999999999445 -0.5 0  -0.4899999999999722 -0.5 0  -0.5 -0.4900000000000277 0  -0.5 -0.4800000000000555 0  -0.5 -0.4700000000000832 0  -0.5 -0.4600000000001109 0  -0.5 -0.4500000000001387 0  -0.5 -0.4400000000001664 0  -0.5 -0.4300000000001942 0  -0.5 -0.4200000000002219 0  -0.5 -0.4100000000002497 0  -0.5 -0.4000000000002774 0  -0.5 -0.3900000000003052 0  -0.5 -0.3800000000003328 0  -0.5 -0.3700000000003606 0  -0.5 -0.3600000000003883 0  -0.5 -0.3500000000004161 0  -0.5 -0.3400000000004438 0  -0.5 -0.3300000000004716 0  -0.5 -0.3200000000004993 0  -0.5 -0.3100000000005271 0  -0.5 -0.3000000000005548 0  -0.5 -0.2900000000005825 0  -0.5 -0.2800000000006103 0  -0.5 -0.2700000000006381 0  -0.5 -0.2600000000006658 0  -0.5 -0.2500000000006935 0  -0.5 -0.2400000000007212 0  -0.5 -0.230000000000749 0  -0.5 -0.2200000000007767 0  -0.5 -0.2100000000008044 0  -0.5 -0.2000000000008322 0  -0.5 -0.19000000000086 0  -0.5 -0.1800000000008877 0  -0.5 -0.1700000000009154 0  -0.5 -0.1600000000009431 0  -0.5 -0.1500000000009709 0  -0.5 -0.1400000000009986 0  -0.5 -0.1300000000010264 0  -0.5 -0.1200000000010541 0  -0.5 -0.1100000000010818 0  -0.5 -0.1000000000011096 0  -0.5 -0.09000000000113734 0  -0.5 -0.08000000000116503 0  -0.5 -0.07000000000119283 0  -0.5 -0.06000000000122058 0  -0.5 -0.05000000000124827 0  -0.5 -0.04000000000127607 0  -0.5 -0.03000000000130376 0  -0.5 -0.02000000000133151 0  -0.5 -0.01000000000135925 0  -0.5 -1.376121439022882e-12 0  -0.5 0.009999999998640763 0  -0.5 0.01999999999866864 0  -0.5 0.02999999999869629 0  -0.5 0.03999999999872406 0  -0.5 0.04999999999875182 0  -0.5 0.05999999999877947 0  -0.5 0.06999999999880724 0  -0.5 0.079999999998835 0  -0.5 0.08999999999886266 0  -0.5 0.09999999999889042
[...]
<PointData  Vectors="f_27-0"> 
<DataArray  type="Float64"  Name="f_27-0"  NumberOfComponents="3" format="ascii">1.9210438346566293e-03 5.0426034810825207e-02 0.0000000000000000e+00  -2.6344168189626222e-03 5.0007509587254695e-02 0.0000000000000000e+00  -6.5770064009253995e-04 3.6902855834894110e-02 0.0000000000000000e+00  7.4047189145662632e-04 3.6796042967856525e-02 0.0000000000000000e+00  -1.8465363678921009e-03 6.6477936385393220e-03 0.0000000000000000e+00  1.9032614010304786e-03 6.5589620810226667e-03 0.0000000000000000e+00  -8.0927365759186660e-04 6.1849445479853988e-03 0.0000000000000000e+00  8.1147701107446210e-04 6.2196671651476524e-03 0.0000000000000000e+00  3.2713213004858699e-03 4.9633482375413748e-02 0.0000000000000000e+00  4.5735009574235453e-03 4.8753985343990724e-02 0.0000000000000000e+00  5.8202689122681030e-03 4.7793550741857420e-02 0.0000000000000000e+00  7.0079339465417365e-03 4.6757054569191922e-02 0.0000000000000000e+00  8.1298690673606636e-03 4.5652054750465042e-02 0.0000000000000000e+00  9.1838184795034923e-03 4.4483379632112449e-02 0.0000000000000000e+00  1.0164355552135459e-02 4.3260660425776448e-02 0.0000000000000000e+00  1.1070605907553363e-02 4.1988768520865305e-02 0.0000000000000000e+00  1.1899706870624051e-02 4.0675629162346995e-02 0.0000000000000000e+00  1.2648753814337440e-02 3.9330004543032440e-02 0.0000000000000000e+00  1.3318975030969625e-02 3.7958453462098078e-02 0.0000000000000000e+00  1.3909641986159961e-02 3.6566875900929587e-02 0.0000000000000000e+00  1.4421035979689547e-02 3.5163205092323090e-02 0.0000000000000000e+00  1.4854929571716411e-02 3.3752482951534483e-02 0.0000000000000000e+00  1.5210855415988940e-02 3.2344060937589625e-02 0.0000000000000000e+00  1.5492525254489400e-02 3.0941231583601805e-02 0.0000000000000000e+00  1.5701521456254159e-02 2.9549510868901223e-02 0.0000000000000000e+00  1.5839764060561423e-02 2.8175391884470369e-02 0.0000000000000000e+00  1.5910773721411042e-02 2.6823331399689572e-02 0.0000000000000000e+00  1.5917476810035663e-02 2.5496027357673909e-02 0.0000000000000000e+00  1.5862426653082684e-02 2.4198395141067180e-02 0.0000000000000000e+00  1.5749411547377565e-02 2.2932853037603444e-02 0.0000000000000000e+00  1.5581538383046061e-02 2.1702213162808674e-02 0.0000000000000000e+00  1.5361711197331309e-02 2.0511288790743796e-02 0.0000000000000000e+00  1.5093434935043684e-02 1.9359913867289028e-02 0.0000000000000000e+00  1.4780279525115689e-02 1.8250524099902188e-02 0.0000000000000000e+00  1.4424871232269376e-02 1.7184439208334464e-02 0.0000000000000000e+00  1.4030498528127568e-02 1.6164073011933011e-02 0.0000000000000000e+00  1.3600300405112601e-02 1.5188187586489517e-02 0.0000000000000000e+00  1.3137190405863189e-02 1.4258656422729121e-02 0.0000000000000000e+00  1.2643552283557664e-02 1.3376180701943019e-02 0.0000000000000000e+00  1.2122135082188455e-02 1.2540916926270474e-02 0.0000000000000000e+00  1.1575520483921593e-02 1.1753385591234948e-02 0.0000000000000000e+00  1.1006095222943043e-02 1.1012700653171663e-02 0.0000000000000000e+00  1.0415732524519550e-02 1.0319082263057071e-02 0.0000000000000000e+00  9.8066321444153625e-03 9.6719926048901422e-03 0.0000000000000000e+00  9.1809317836846760e-03 9.0720721267845104e-03 0.0000000000000000e+00  8.5400953959633343e-03 8.5183022704941897e-03 0.0000000000000000e+00  7.8859750462695350e-03 8.0101002091426919e-03 0.0000000000000000e+00  7.2200980354338801e-03 7.5481926468527385e-03 0.0000000000000000e+00  6.5439508312152457e-03 7.1310624396195253e-03 0.0000000000000000e+00  5.8589305609345393e-03 6.7577971199129548e-03 0.0000000000000000e+00  5.1660580416563739e-03 6.4299838066438344e-03 0.0000000000000000e+00  4.4666924264465469e-03 6.1458508108458276e-03 0.0000000000000000e+00  3.7618734549480300e-03 5.9053677100693452e-03 0.0000000000000000e+00  3.0523990156790331e-03 5.7079366112218650e-03 0.0000000000000000e+00  2.3398853989814576e-03 5.5541623103681614e-03 0.0000000000000000e+00  1.6245299281263366e-03 5.4427602131761751e-03 0.0000000000000000e+00  9.0792683184703763e-04 5.3735424923268618e-03 0.0000000000000000e+00  1.9037015002044852e-04 5.3473938732069284e-03 0.0000000000000000e+00  -5.2698029820464612e-04 5.3638256841055856e-03 0.0000000000000000e+00  -1.2431304238331158e-03 5.4219449748749747e-03 0.0000000000000000e+00  -1.9575671914137901e-03 5.5223399131349177e-03 0.0000000000000000e+00  -2.6690543306833936e-03 5.6655841643280360e-03 0.0000000000000000e+00  -3.3769401104763925e-03 5.8519436659623418e-03 0.0000000000000000e+00  -4.0799658518661840e-03 6.0810855205872044e-03 0.0000000000000000e+00  -4.7774316744423366e-03 6.3534957526385129e-03 0.0000000000000000e+00  -5.4680847463121360e-03 6.6689657626161879e-03 0.0000000000000000e+00  -6.1510592930483299e-03 7.0282556828123689e-03 0.0000000000000000e+00  -6.8250636977414047e-03 7.4310944090891619e-03 0.0000000000000000e+00  -7.4885903148901667e-03 7.8791291865019653e-03 0.0000000000000000e+00  -8.1408529468728012e-03 8.3713564027124952e-03 0.0000000000000000e+00  -8.7796815835769326e-03 8.9085752677025877e-03 0.0000000000000000e+00  -9.4039705757931625e-03 9.4911832714282204e-03 0.0000000000000000e+00  -1.0012059388691302e-02 1.0119091232556958e-02 0.0000000000000000e+00  -1.0601732852759081e-02 1.0792671492541456e-02 0.0000000000000000e+00  -1.1171889579700627e-02 1.1512664270777783e-02 0.0000000000000000e+00  -1.1719328683715252e-02 1.2279014160880442e-02 0.0000000000000000e+00  -1.2243261936315853e-02 1.3091360967151411e-02 0.0000000000000000e+00  -1.2740083889034809e-02 1.3949694574532840e-02 0.0000000000000000e+00  -1.3208258221197018e-02 1.4854598128315607e-02 0.0000000000000000e+00  -1.3645105532212749e-02 1.5803598395791076e-02 0.0000000000000000e+00  -1.4047687757465786e-02 1.6796989387713665e-02 0.0000000000000000e+00  -1.4413738983983557e-02 1.7835043868730464e-02 0.0000000000000000e+00  -1.4739607644586455e-02 1.8915737368880938e-02 0.0000000000000000e+00  -1.5023403026786624e-02 2.0037927696223947e-02 0.0000000000000000e+00  -1.5260854204432187e-02 2.1200954805888877e-02 0.0000000000000000e+00  -1.5449897052012258e-02 2.2400389764473103e-02 0.0000000000000000e+00  -1.5587044125395683e-02 2.3636342094296860e-02 0.0000000000000000e+00  -1.5669007515091881e-02 2.4905683517374846e-02 0.0000000000000000e+00  -1.5693074957470920e-02 2.6205242108767436e-02 0.0000000000000000e+00  -1.5655720258479052e-02 2.7531365526582391e-02 0.0000000000000000e+00  -1.5554847427950980e-02 2.8880990370790397e-02 0.0000000000000000e+00  -1.5386319011373228e-02 3.0250452104094990e-02 0.0000000000000000e+00  -1.5149041638058223e-02 3.1633111181792420e-02 0.0000000000000000e+00  -1.4839950497817554e-02 3.3025501501609218e-02 0.0000000000000000e+00  -1.4456710152817739e-02 3.4423145053605178e-02 0.0000000000000000e+00  -1.3997846685945652e-02 3.5818607154701088e-02 0.0000000000000000e+00  -1.3462279071126491e-02 3.7206094175201945e-02 0.0000000000000000e+00  -1.2848836553394857e-02 3.8578941616739790e-02 0.0000000000000000e+00  -1.2157593203962033e-02 3.9931212360433253e-02 0.0000000000000000e+00  -1.1387117550471042e-02 4.1256817714829586e-02 0.0000000000000000e+00  -1.0539796950372386e-02 4.2547019445356271e-02 0.0000000000000000e+00  -9.6163561421900058e-03 4.3794814705963803e-02 0.0000000000000000e+00  -8.6179057048640095e-03 4.4994668790697398e-02 0.0000000000000000e+00  -7.5493797048265861e-03 4.6136447707785688e-02 0.0000000000000000e+00  -6.4115198052084104e-03 4.7215979100523643e-02 0.0000000000000000e+00  -5.2098000368422165e-03 4.8225196443512940e-02 0.0000000000000000e+00  -3.9490828767072507e-03 4.9157576608055135e-02 0.0000000000000000e+00  -2.9875490982931756e-03 5.1383224123427329e-02 0.0000000000000000e+00  -3.3681175829243784e-03 5.2831165652378678e-02 0.0000000000000000e+00  -3.7762364852647556e-03 5.4359047863439890e-02 0.0000000000000000e+00  -4.2157695686027069e-03 5.5969232796659066e-02 0.0000000000000000e+00  -4.6881730928988938e-03 5.7669945126198538e-02 0.0000000000000000e+00  -5.1997172023944271e-03 5.9464996632566006e-02 0.0000000000000000e+00  -5.7481171437688428e-03 6.1361562071768953e-02 0.0000000000000000e+00  -6.3436872323494693e-03 6.3367033095976188e-02 0.0000000000000000e+00  -6.9895564147266854e-03 6.5486686370365074e-02 0.0000000000000000e+00  -7.6875355202872713e-03 6.7729952653154013e-02 0.0000000000000000e+00  -8.4467162274360179e-03 7.0103093663853172e-02 0.0000000000000000e+00  -9.2761332501110454e-03 7.2611486037504613e-02 0.0000000000000000e+00  -1.0182024794305033e-02 7.5263723632638863e-02 0.0000000000000000e+00  -1.1175586942115432e-02 7.8059256322227030e-02 0.0000000000000000e+00  -1.2262370752434332e-02 8.1004737391846132e-02 0.0000000000000000e+00  -1.3450382208321910e-02 8.4099293131518954e-02 0.0000000000000000e+00  -1.4747811027417936e-02 8.7330506985578094e-02 0.0000000000000000e+00  -1.6143926147188584e-02 9.0693152662562046e-02 0.0000000000000000e+00  -1.7616249023290943e-02 9.4155338167605129e-02 0.0000000000000000e+00  -1.9112150389774877e-02 9.7679183243762124e-02 0.0000000000000000e+00  -2.0519064466949077e-02 1.0121719583788012e-01 0.0000000000000000e+00  -2.1654347317428362e-02 1.0469257807828990e-01 0.0000000000000000e+00  -2.2209496104237558e-02 1.0802969928646669e-01 0.0000000000000000e+00  -2.1760321152812491e-02 1.1113638353760112e-01 0.0000000000000000e+00  -1.9735748097803076e-02 1.1392229724743638e-01 0.0000000000000000e+00  -1.5466228676670218e-02 1.1634468118675986e-01 0.0000000000000000e+00  -8.4025918703840193e-03 1.1836818944225946e-01 0.0000000000000000e+00  1.7326889909889352e-03 1.2001639223304951e-01 0.0000000000000000e+00  1.4574446123412856e-02 1.2132527046365520e-01 0.0000000000000000e+00  2.9107221671786285e-02 1.2219586274023438e-01 0.0000000000000000e+00  4.3511279868614403e-02 1.2247377057916005e-01 0.0000000000000000e+00  5.5442745259263078e-02 1.2174942991118413e-01 0.0000000000000000e+00  6.2066915510741207e-02 1.1969255064375417e-01 0.0000000000000000e+00  5.9981388985912043e-02 1.1617341704025216e-01 0.0000000000000000e+00  4.6512178626635495e-02 1.1174318800852867e-01 0.0000000000000000e+00  2.1413424477029461e-02 1.0828737666972403e-01 0.0000000000000000e+00  -9.9366320121123345e-03 1.0813601481082845e-01 0.0000000000000000e+00  -3.7575489684283973e-02 1.1355851104308914e-01 0.0000000000000000e+00  -5.1929700613483183e-02 1.2459580769757667e-01 0.0000000000000000e+00  -5.2274749581061021e-02 1.3837537951518641e-01 0.0000000000000000e+00  -4.5963452136491036e-02 1.5110049422183619e-01 0.0000000000000000e+00  -3.9049101583591012e-02 1.6087540008380605e-01 0.0000000000000000e+00  -3.3037438675005755e-02 1.6763416908678952e-01 0.0000000000000000e+00  -2.7746218707611910e-02 1.7204999218070915e-01 0.0000000000000000e+00  -2.3003538043717072e-02 1.7458388620780288e-01 0.0000000000000000e+00  -1.8688091262584583e-02 1.7563104277853153e-01 0.0000000000000000e+00  -1.4724874365215645e-02 1.7543934166742331e-01 0.0000000000000000e+00  -1.1149648449575769e-02 1.7423541210448401e-01 0.0000000000000000e+00  -7.8899316447246653e-03 1.7220889873995116e-01 0.0000000000000000e+00  -4.9501484848958610e-03 1.6950065366348710e-01 0.0000000000000000e+00  -2.3270809700294678e-03 1.6622509865684570e-01 0.0000000000000000e+00  -2.7378083993694515e-05 1.6251278113814482e-01 0.0000000000000000e+00  1.9714123312999858e-03 1.5846111374070396e-01 0.0000000000000000e+00  3.6977981963298707e-03 1.5414941159660697e-01 0.0000000000000000e+00  5.1451067026457064e-03 1.4965453068091600e-01 0.0000000000000000e+00  6.3455881178150278e-03 1.4504166059643545e-01 0.0000000000000000e+00  7.3100677556045745e-03 1.4037138870905400e-01 0.0000000000000000e+00  8.0552993232085850e-03 1.3569709231389715e-01 0.0000000000000000e+00  8.6140068243013256e-03 1.3104909732680642e-01 0.0000000000000000e+00  9.0013833972364485e-03 1.2646898883987781e-01 0.0000000000000000e+00  9.2462758352034081e-03 1.2197490080431658e-01 0.0000000000000000e+00  9.3621144137360883e-03 1.1759540688028162e-01 0.0000000000000000e+00  9.3715453241564415e-03 1.1334293447211685e-01 0.0000000000000000e+00  9.2895364125562402e-03 1.0922958916731250e-01 0.0000000000000000e+00  9.1323984331197015e-03 1.0526336186898981e-01 0.0000000000000000e+00  8.9148793876903838e-03 1.0144615377133606e-01 0.0000000000000000e+00  8.6493250525232334e-03 9.7785939928598506e-02 0.0000000000000000e+00  8.3482588410198691e-03 9.4272562932511794e-02 0.0000000000000000e+00  8.0176172108156821e-03 9.0915705370391925e-02 0.0000000000000000e+00  7.6669401068458556e-03 8.7702649817655687e-02 0.0000000000000000e+00  7.3009428943794155e-03 8.4635216774906430e-02 0.0000000000000000e+00  6.9224539904251597e-03 8.1708161698027623e-02 0.0000000000000000e+00  6.5379383476514225e-03 7.8917720186569035e-02 0.0000000000000000e+00  6.1534615937143908e-03 7.6255172291349954e-02 0.0000000000000000e+00  5.7707905742014386e-03 7.3714913476746177e-02 0.0000000000000000e+00  5.3903755578331419e-03 7.1295835006871769e-02 0.0000000000000000e+00  5.0181881378350184e-03 6.8986652761772030e-02 0.0000000000000000e+00  4.6494103043577262e-03 6.6786375936402825e-02 0.0000000000000000e+00  4.2905562692914208e-03 6.4686852984183182e-02 0.0000000000000000e+00  3.9415905398690080e-03 6.2684806293061626e-02 0.0000000000000000e+00  3.6021665812333379e-03 6.0774890980088453e-02 0.0000000000000000e+00  3.2733568547727802e-03 5.8951385267555015e-02 0.0000000000000000e+00  2.9560646546903584e-03 5.7211623935882000e-02 0.0000000000000000e+00  2.6508272143722323e-03 5.5548819853582024e-02 0.0000000000000000e+00  2.3561758626921099e-03 5.3961532153371281e-02 0.0000000000000000e+00  2.0739133835242412e-03 5.2443642900445508e-02 0.0000000000000000e+00  1.8044651339801331e-03 5.0993247279537600e-02 0.0000000000000000e+00  1.5463483693005172e-03 4.9605772387455817e-02 0.0000000000000000e+00  1.3002627914289132e-03 4.8279044196368408e-02 0.0000000000000000e+00  1.0654603404566924e-03 4.7009028097007730e-02 0.0000000000000000e+00  8.4295146756933523e-04 4.5793826753926195e-02 0.0000000000000000e+00  6.3248495320345659e-04 4.4629667274117650e-02 0.0000000000000000e+00  4.3307268322355667e-04 4.3514988271691778e-02 0.0000000000000000e+00  2.4460720843906905e-04 4.2446704827241638e-02 0.0000000000000000e+00  6.8192613021460675e-05 4.1422581962970335e-02 0.0000000000000000e+00  -9.7862536359153481e-05 4.0441406868578118e-02 0.0000000000000000e+00  -2.5290270277382064e-04 3.9500319070398339e-02 0.0000000000000000e+00  -3.9712642153479121e-04 3.8597993235827431e-02 0.0000000000000000e+00  -5.3201875292948014e-04 3.7732760260652726e-02 0.0000000000000000e+00  1.4404558797614602e-04 3.6431667496599089e-02 0.0000000000000000e+00  9.2133855928832394e-04 3.5916244236551327e-02 0.0000000000000000e+00  1.6724902400136645e-03 3.5358144193582373e-02 0.0000000000000000e+00  2.3945263993035218e-03 3.4760064919403900e-02 0.0000000000000000e+00  3.0859762852352103e-03 3.4123975392405401e-02 0.0000000000000000e+00  3.7442642722374814e-03 3.3453212442491220e-02 0.0000000000000000e+00  4.3683475104825120e-03 3.2749568687912067e-02 0.0000000000000000e+00  4.9559426684481394e-03 3.2016479611077543e-02 0.0000000000000000e+00  5.5059429956348781e-03 3.1256809793691005e-02 0.0000000000000000e+00  6.0177641052903911e-03 3.0473293252298621e-02 0.0000000000000000e+00  6.4898517321402309e-03 2.9669062703714427e-02 0.0000000000000000e+00  6.9215528198257256e-03 2.8847726089661071e-02 0.0000000000000000e+00  7.3124102344899449e-03 2.8011888325339601e-02 0.0000000000000000e+00  7.6616996225894523e-03 2.7165443508031663e-02 0.0000000000000000e+00  7.9701100022138739e-03 2.6310331659796415e-02 0.0000000000000000e+00  8.2369834985498939e-03 2.5450471317688503e-02 0.0000000000000000e+00  8.4627150418577143e-03 2.4588979168032536e-02 0.0000000000000000e+00  8.6479020476858803e-03 2.3728326458119214e-02 0.0000000000000000e+00  8.7930381415868928e-03 2.2871169595503938e-02 0.0000000000000000e+00  8.8985453836724175e-03 2.2020973523019731e-02 0.0000000000000000e+00  8.9655938412674021e-03 2.1179711992367227e-02 0.0000000000000000e+00  8.9949364923618859e-03 2.0350274958956121e-02 0.0000000000000000e+00  8.9875755903078038e-03 1.9535018690137962e-02 0.0000000000000000e+00  8.9451674267430233e-03 1.8735339823048720e-02 0.0000000000000000e+00  8.8685541566276595e-03 1.7953857728260827e-02 0.0000000000000000e+00  8.7590584261117797e-03 1.7192349941752082e-02 0.0000000000000000e+00  8.6182175605753215e-03 1.6452667863315885e-02 0.0000000000000000e+00  8.4475492472039955e-03 1.5735888648974912e-02 0.0000000000000000e+00  8.2482621819954353e-03 1.5044428770699060e-02 0.0000000000000000e+00  8.0217431228360048e-03 1.4378990774441580e-02 0.0000000000000000e+00  7.7697802586535565e-03 1.3740834112653203e-02 0.0000000000000000e+00  7.4936595389007493e-03 1.3130901675090029e-02 0.0000000000000000e+00  7.1950551757545850e-03 1.2549946684331360e-02 0.0000000000000000e+00  6.8751910222429593e-03 1.1999357314307233e-02 0.0000000000000000e+00  6.5357158562695744e-03 1.1479587907765841e-02 0.0000000000000000e+00  6.1780521579051046e-03 1.0991625297685579e-02 0.0000000000000000e+00  5.8034184838662104e-03 1.0535226697933237e-02 0.0000000000000000e+00  5.4134619115227293e-03 1.0111606722234857e-02 0.0000000000000000e+00  5.0092548910088842e-03 9.7209059701442429e-03 0.0000000000000000e+00  4.5924431625418687e-03 9.3631046124402709e-03 0.0000000000000000e+00  4.1640758770091673e-03 9.0390950430563628e-03 0.0000000000000000e+00  3.7253480094208082e-03 8.7494480936895196e-03 0.0000000000000000e+00  3.2777611130247811e-03 8.4932205739822950e-03 0.0000000000000000e+00  2.8222857097382689e-03 8.2712271109414807e-03 0.0000000000000000e+00  2.3602007212027696e-03 8.0834274171265787e-03 0.0000000000000000e+00  1.8927475790676653e-03 7.9300171234415236e-03 0.0000000000000000e+00  1.4208325394754237e-03 7.8106351710968795e-03 0.0000000000000000e+00  9.4597260068067393e-04 7.7260342920120843e-03 0.0000000000000000e+00  4.6883501289246229e-04 7.6761857081827593e-03 0.0000000000000000e+00  -9.0853885201574695e-06 7.6604786306764200e-03 0.0000000000000000e+00  -4.8687919018653792e-04 7.6792361749746024e-03 0.0000000000000000e+00  -9.6351051940138681e-04 7.7328724957707413e-03 0.0000000000000000e+00  -1.4376523599049875e-03 7.8210867102499367e-03 0.0000000000000000e+00  -1.9083557472169897e-03 7.9434835462724538e-03 0.0000000000000000e+00  -2.3743980350939406e-03 8.1000121940301689e-03 0.0000000000000000e+00  -2.8348523311170345e-03 8.2908645309415600e-03 0.0000000000000000e+00  -3.2882926417842268e-03 8.5157488974996632e-03 0.0000000000000000e+00  -3.7337448817425399e-03 8.7749045953099316e-03 0.0000000000000000e+00  -4.1698839900406442e-03 9.0677384228163727e-03 0.0000000000000000e+00  -4.5954429950174321e-03 9.3944759335235564e-03 0.0000000000000000e+00  -5.0094554295072261e-03 9.7540507127805570e-03 0.0000000000000000e+00  -5.4102229239037791e-03 1.0146999475553864e-02 0.0000000000000000e+00  -5.7968269341862671e-03 1.0572586122199886e-02 0.0000000000000000e+00  -6.1677002541999197e-03 1.1030457297579203e-02 0.0000000000000000e+00  -6.5214482562133856e-03 1.1520134568646883e-02 0.0000000000000000e+00  -6.8568178544959734e-03 1.2041098251017018e-02 0.0000000000000000e+00  -7.1722139760882478e-03 1.2592511841775329e-02 0.0000000000000000e+00  -7.4666200612633696e-03 1.3173366778273608e-02 0.0000000000000000e+00  -7.7379131976315872e-03 1.3783436030156349e-02 0.0000000000000000e+00  -7.9853321918214714e-03 1.4421321079940831e-02 0.0000000000000000e+00  -8.2070294898207337e-03 1.5085871813002430e-02 0.0000000000000000e+00  -8.4014866040419446e-03 1.5776665422183943e-02 0.0000000000000000e+00  -8.5673797181851849e-03 1.6492194117388632e-02 0.0000000000000000e+00  -8.7033542249390118e-03 1.7230104369065583e-02 0.0000000000000000e+00  -8.8081604069025314e-03 1.7989462129994121e-02 0.0000000000000000e+00  -8.8798443693750631e-03 1.8768323777741281e-02 0.0000000000000000e+00  -8.9181255872039841e-