<?xml version="1.0"?>
<VTKFile type="UnstructuredGrid"  version="0.1"  >
<UnstructuredGrid>
<Piece  NumberOfPoints="16275" NumberOfCells="32468">
<Points>
<DataArray  type="Float64"  NumberOfComponents="3"  format="ascii">-0.5 0.5 0  0.5 0.5 0  0.5 -0.5 0  -0.5 -0.5 0  -1 1 0  1 1 0  1 -1 0  -1 -1 0  -0.4900000000000277 0.5 0  -0.4800000000000555 0.5 0  -0.4700000000000832 0.5 0  -0.4600000000001109 0.5 0  -0.4500000000001387 0.5 0  -0.4400000000001664 0.5 0  -0.4300000000001942 0.5 0  -0.4200000000002219 0.5 0  -0.4100000000002497 0.5 0  -0.4000000000002774 0.5 0  -0.3900000000003052 0.5 0  -0.3800000000003328 0.5 0  -0.3700000000003606 0.5 0  -0.3600000000003883 0.5 0  -0.3500000000004161 0.5 0  -0.3400000000004438 0.5 0  -0.3300000000004716 0.5 0  -0.3200000000004993 0.5 0  -0.3100000000005271 0.5 0  -0.3000000000005548 0.5 0  -0.2900000000005825 0.5 0  -0.2800000000006103 0.5 0  -0.2700000000006381 0.5 0  -0.2600000000006658 0.5 0  -0.2500000000006935 0.5 0  -0.2400000000007212 0.5 0  -0.230000000000749 0.5 0  -0.2200000000007767 0.5 0  -0.2100000000008044 0.5 0  -0.2000000000008322 0.5 0  -0.19000000000086 0.5 0  -0.1800000000008877 0.5 0  -0.1700000000009154 0.5 0  -0.1600000000009431 0.5 0  -0.1500000000009709 0.5 0  -0.1400000000009986 0.5 0  -0.1300000000010264 0.5 0  -0.1200000000010541 0.5 0  -0.1100000000010818 0.5 0  -0.1000000000011096 0.5 0  -0.09000000000113734 0.5 0  -0.08000000000116503 0.5 0  -0.07000000000119283 0.5 0  -0.06000000000122058 0.5 0  -0.05000000000124827 0.5 0  -0.04000000000127607 0.5 0  -0.03000000000130376 0.5 0  -0.02000000000133151 0.5 0  -0.01000000000135925 0.5 0  -1.376121439022882e-12 0.5 0  0.009999999998640763 0.5 0  0.01999999999866864 0.5 0  0.02999999999869629 0.5 0  0.03999999999872406 0.5 0  0.04999999999875182 0.5 0  0.05999999999877947 0.5 0  0.06999999999880724 0.5 0  0.079999999998835 0.5 0  0.08999999999886266 0.5 0  0.09999999999889042 0.5 0  0.1099999999989182 0.5 0  0.1199999999989459 0.5 0  0.1299999999989737 0.5 0  0.1399999999990014 0.5 0  0.1499999999990291 0.5 0  0.1599999999990568 0.5 0  0.1699999999990847 0.5 0  0.1799999999991124 0.5 0  0.1899999999991401 0.5 0  0.1999999999991678 0.5 0  0.2099999999991955 0.5 0  0.2199999999992234 0.5 0  0.2299999999992511 0.5 0  0.2399999999992788 0.5 0  0.2499999999993066 0.5 0  0.2599999999993342 0.5 0  0.269999999999362 0.5 0  0.2799999999993897 0.5 0  0.2899999999994175 0.5 0  0.2999999999994452 0.5 0  0.3099999999994729 0.5 0  0.3199999999995007 0.5 0  0.3299999999995284 0.5 0  0.3399999999995562 0.5 0  0.3499999999995839 0.5 0  0.3599999999996116 0.5 0  0.3699999999996393 0.5 0  0.379999999999667 0.5 0  0.3899999999996949 0.5 0  0.3999999999997226 0.5 0  0.4099999999997503 0.5 0  0.419999999999778 0.5 0  0.4299999999998058 0.5 0  0.4399999999998336 0.5 0  0.4499999999998613 0.5 0  0.4599999999998891 0.5 0  0.4699999999999167 0.5 0  0.4799999999999445 0.5 0  0.4899999999999722 0.5 0  0.5 0.4900000000000277 0  0.5 0.4800000000000555 0  0.5 0.4700000000000832 0  0.5 0.4600000000001109 0  0.5 0.4500000000001387 0  0.5 0.4400000000001664 0  0.5 0.4300000000001942 0  0.5 0.4200000000002219 0  0.5 0.4100000000002497 0  0.5 0.4000000000002774 0  0.5 0.3900000000003052 0  0.5 0.3800000000003328 0  0.5 0.3700000000003606 0  0.5 0.3600000000003883 0  0.5 0.3500000000004161 0  0.5 0.3400000000004438 0  0.5 0.3300000000004716 0  0.5 0.3200000000004993 0  0.5 0.3100000000005271 0  0.5 0.3000000000005548 0  0.5 0.2900000000005825 0  0.5 0.2800000000006103 0  0.5 0.2700000000006381 0  0.5 0.2600000000006658 0  0.5 0.2500000000006935 0  0.5 0.2400000000007212 0  0.5 0.230000000000749 0  0.5 0.2200000000007767 0  0.5 0.2100000000008044 0  0.5 0.2000000000008322 0  0.5 0.19000000000086 0  0.5 0.1800000000008877 0  0.5 0.1700000000009154 0  0.5 0.1600000000009431 0  0.5 0.1500000000009709 0  0.5 0.1400000000009986 0  0.5 0.1300000000010264 0  0.5 0.1200000000010541 0  0.5 0.1100000000010818 0  0.5 0.1000000000011096 0  0.5 0.09000000000113734 0  0.5 0.08000000000116503 0  0.5 0.07000000000119283 0  0.5 0.06000000000122058 0  0.5 0.05000000000124827 0  0.5 0.04000000000127607 0  0.5 0.03000000000130376 0  0.5 0.02000000000133151 0  0.5 0.01000000000135925 0  0.5 1.376121439022882e-12 0  0.5 -0.009999999998640763 0  0.5 -0.01999999999866864 0  0.5 -0.02999999999869629 0  0.5 -0.03999999999872406 0  0.5 -0.04999999999875182 0  0.5 -0.05999999999877947 0  0.5 -0.06999999999880724 0  0.5 -0.079999999998835 0  0.5 -0.08999999999886266 0  0.5 -0.09999999999889042 0  0.5 -0.1099999999989182 0  0.5 -0.1199999999989459 0  0.5 -0.1299999999989737 0  0.5 -0.1399999999990014 0  0.5 -0.1499999999990291 0  0.5 -0.1599999999990568 0  0.5 -0.1699999999990847 0  0.5 -0.1799999999991124 0  0.5 -0.1899999999991401 0  0.5 -0.1999999999991678 0  0.5 -0.2099999999991955 0  0.5 -0.2199999999992234 0  0.5 -0.2299999999992511 0  0.5 -0.2399999999992788 0  0.5 -0.2499999999993066 0  0.5 -0.2599999999993342 0  0.5 -0.269999999999362 0  0.5 -0.2799999999993897 0  0.5 -0.2899999999994175 0  0.5 -0.2999999999994452 0  0.5 -0.3099999999994729 0  0.5 -0.3199999999995007 0  0.5 -0.3299999999995284 0  0.5 -0.3399999999995562 0  0.5 -0.3499999999995839 0  0.5 -0.3599999999996116 0  0.5 -0.3699999999996393 0  0.5 -0.379999999999667 0  0.5 -0.3899999999996949 0  0.5 -0.3999999999997226 0  0.5 -0.4099999999997503 0  0.5 -0.419999999999778 0  0.5 -0.4299999999998058 0  0.5 -0.4399999999998336 0  0.5 -0.4499999999998613 0  0.5 -0.4599999999998891 0  0.5 -0.4699999999999167 0  0.5 -0.4799999999999445 0  0.5 -0.4899999999999722 0  0.4900000000000277 -0.5 0  0.4800000000000555 -0.5 0  0.4700000000000832 -0.5 0  0.4600000000001109 -0.5 0  0.4500000000001387 -0.5 0  0.4400000000001664 -0.5 0  0.4300000000001942 -0.5 0  0.4200000000002219 -0.5 0  0.4100000000002497 -0.5 0  0.4000000000002774 -0.5 0  0.3900000000003052 -0.5 0  0.3800000000003328 -0.5 0  0.3700000000003606 -0.5 0  0.3600000000003883 -0.5 0  0.3500000000004161 -0.5 0  0.3400000000004438 -0.5 0  0.3300000000004716 -0.5 0  0.3200000000004993 -0.5 0  0.3100000000005271 -0.5 0  0.3000000000005548 -0.5 0  0.2900000000005825 -0.5 0  0.2800000000006103 -0.5 0  0.2700000000006381 -0.5 0  0.2600000000006658 -0.5 0  0.2500000000006935 -0.5 0  0.2400000000007212 -0.5 0  0.230000000000749 -0.5 0  0.2200000000007767 -0.5 0  0.2100000000008044 -0.5 0  0.2000000000008322 -0.5 0  0.19000000000086 -0.5 0  0.1800000000008877 -0.5 0  0.1700000000009154 -0.5 0  0.1600000000009431 -0.5 0  0.1500000000009709 -0.5 0  0.1400000000009986 -0.5 0  0.1300000000010264 -0.5 0  0.1200000000010541 -0.5 0  0.1100000000010818 -0.5 0  0.1000000000011096 -0.5 0  0.09000000000113734 -0.5 0  0.08000000000116503 -0.5 0  0.07000000000119283 -0.5 0  0.06000000000122058 -0.5 0  0.05000000000124827 -0.5 0  0.04000000000127607 -0.5 0  0.03000000000130376 -0.5 0  0.02000000000133151 -0.5 0  0.01000000000135925 -0.5 0  1.376121439022882e-12 -0.5 0  -0.009999999998640763 -0.5 0  -0.01999999999866864 -0.5 0  -0.02999999999869629 -0.5 0  -0.03999999999872406 -0.5 0  -0.04999999999875182 -0.5 0  -0.05999999999877947 -0.5 0  -0.06999999999880724 -0.5 0  -0.079999999998835 -0.5 0  -0.08999999999886266 -0.5 0  -0.09999999999889042 -0.5 0  -0.1099999999989182 -0.5 0  -0.1199999999989459 -0.5 0  -0.1299999999989737 -0.5 0  -0.1399999999990014 -0.5 0  -0.1499999999990291 -0.5 0  -0.1599999999990568 -0.5 0  -0.1699999999990847 -0.5 0  -0.1799999999991124 -0.5 0  -0.1899999999991401 -0.5 0  -0.1999999999991678 -0.5 0  -0.2099999999991955 -0.5 0  -0.2199999999992234 -0.5 0  -0.2299999999992511 -0.5 0  -0.2399999999992788 -0.5 0  -0.2499999999993066 -0.5 0  -0.2599999999993342 -0.5 0  -0.269999999999362 -0.5 0  -0.2799999999993897 -0.5 0  -0.2899999999994175 -0.5 0  -0.2999999999994452 -0.5 0  -0.3099999999994729 -0.5 0  -0.3199999999995007 -0.5 0  -0.3299999999995284 -0.5 0  -0.3399999999995562 -0.5 0  -0.3499999999995839 -0.5 0  -0.3599999999996116 -0.5 0  -0.3699999999996393 -0.5 0  -0.379999999999667 -0.5 0  -0.3899999999996949 -0.5 0  -0.3999999999997226 -0.5 0  -0.4099999999997503 -0.5 0  -0.419999999999778 -0.5 0  -0.4299999999998058 -0.5 0  -0.4399999999998336 -0.5 0  -0.4499999999998613 -0.5 0  -0.4599999999998891 -0.5 0  -0.4699999999999167 -0.5 0  -0.4799999999999445 -0.5 0  -0.4899999999999722 -0.5 0  -0.5 -0.4900000000000277 0  -0.5 -0.4800000000000555 0  -0.5 -0.4700000000000832 0  -0.5 -0.4600000000001109 0  -0.5 -0.4500000000001387 0  -0.5 -0.4400000000001664 0  -0.5 -0.4300000000001942 0  -0.5 -0.4200000000002219 0  -0.5 -0.4100000000002497 0  -0.5 -0.4000000000002774 0  -0.5 -0.3900000000003052 0  -0.5 -0.3800000000003328 0  -0.5 -0.3700000000003606 0  -0.5 -0.3600000000003883 0  -0.5 -0.3500000000004161 0  -0.5 -0.3400000000004438 0  -0.5 -0.3300000000004716 0  -0.5 -0.3200000000004993 0  -0.5 -0.3100000000005271 0  -0.5 -0.3000000000005548 0  -0.5 -0.2900000000005825 0  -0.5 -0.2800000000006103 0  -0.5 -0.2700000000006381 0  -0.5 -0.2600000000006658 0  -0.5 -0.2500000000006935 0  -0.5 -0.2400000000007212 0  -0.5 -0.230000000000749 0  -0.5 -0.2200000000007767 0  -0.5 -0.2100000000008044 0  -0.5 -0.2000000000008322 0  -0.5 -0.19000000000086 0  -0.5 -0.1800000000008877 0  -0.5 -0.1700000000009154 0  -0.5 -0.1600000000009431 0  -0.5 -0.1500000000009709 0  -0.5 -0.1400000000009986 0  -0.5 -0.1300000000010264 0  -0.5 -0.1200000000010541 0  -0.5 -0.1100000000010818 0  -0.5 -0.1000000000011096 0  -0.5 -0.09000000000113734 0  -0.5 -0.08000000000116503 0  -0.5 -0.07000000000119283 0  -0.5 -0.06000000000122058 0  -0.5 -0.05000000000124827 0  -0.5 -0.04000000000127607 0  -0.5 -0.03000000000130376 0  -0.5 -0.02000000000133151 0  -0.5 -0.01000000000135925 0  -0.5 -1.376121439022882e-12 0  -0.5 0.009999999998640763 0  -0.5 0.01999999999866864 0  -0.5 0.02999999999869629 0  -0.5 0.03999999999872406 0  -0.5 0.04999999999875182 0  -0.5 0.05999999999877947 0  -0.5 0.06999999999880724 0  -0.5 0.079999999998835 0  -0.5 0.08999999999886266 0  -0.5 0.09999999999889042
[...]
<PointData  Vectors="f_27-0"> 
<DataArray  type="Float64"  Name="f_27-0"  NumberOfComponents="3" format="ascii">1.1139743623918329e-03 4.6300253614367751e-02 0.0000000000000000e+00  -1.5574852806891680e-03 4.6152470057886585e-02 0.0000000000000000e+00  -9.4883729069481984e-05 3.9475701193970411e-02 0.0000000000000000e+00  2.4041192139563608e-04 3.9403052946879617e-02 0.0000000000000000e+00  -1.5153778953208002e-03 6.3039439004328231e-03 0.0000000000000000e+00  1.4746494930663796e-03 6.3107953976864663e-03 0.0000000000000000e+00  -9.7657361023335246e-04 6.2325478556873167e-03 0.0000000000000000e+00  9.8787861051115506e-04 6.2113974043113375e-03 0.0000000000000000e+00  2.2749105838144076e-03 4.5616681620032025e-02 0.0000000000000000e+00  3.3971486745439624e-03 4.4862070627838237e-02 0.0000000000000000e+00  4.4753838331005619e-03 4.4040696980907491e-02 0.0000000000000000e+00  5.5065869158288832e-03 4.3156079691267953e-02 0.0000000000000000e+00  6.4857028909621828e-03 4.2213739644206397e-02 0.0000000000000000e+00  7.4106784061104313e-03 4.1217333142946289e-02 0.0000000000000000e+00  8.2771310830459660e-03 4.0173698667844114e-02 0.0000000000000000e+00  9.0839827033768646e-03 3.9086986795840203e-02 0.0000000000000000e+00  9.8286287853282424e-03 3.7962919117771145e-02 0.0000000000000000e+00  1.0508424401557540e-02 3.6807992769515380e-02 0.0000000000000000e+00  1.1123811424661807e-02 3.5627491761137504e-02 0.0000000000000000e+00  1.1673793309818891e-02 3.4426226369157167e-02 0.0000000000000000e+00  1.2158086825532757e-02 3.3210593367277462e-02 0.0000000000000000e+00  1.2577546055457378e-02 3.1984631120713057e-02 0.0000000000000000e+00  1.2931297929774420e-02 3.0755831898234307e-02 0.0000000000000000e+00  1.3221808296869711e-02 2.9527310845151630e-02 0.0000000000000000e+00  1.3450003865647438e-02 2.8303692018491183e-02 0.0000000000000000e+00  1.3616881619938070e-02 2.7090631120332876e-02 0.0000000000000000e+00  1.3724848651773041e-02 2.5892042385456140e-02 0.0000000000000000e+00  1.3776066606054108e-02 2.4710632360851841e-02 0.0000000000000000e+00  1.3772170031403472e-02 2.3550882176372374e-02 0.0000000000000000e+00  1.3716013078343105e-02 2.2415191914693610e-02 0.0000000000000000e+00  1.3609944951375954e-02 2.1306367813717909e-02 0.0000000000000000e+00  1.3456007585590849e-02 2.0228740128590456e-02 0.0000000000000000e+00  1.3257086627588561e-02 1.9182907012584322e-02 0.0000000000000000e+00  1.3016025262038834e-02 1.8171236029089776e-02 0.0000000000000000e+00  1.2734872839196561e-02 1.7195412834346769e-02 0.0000000000000000e+00  1.2416262743896131e-02 1.6257791688714423e-02 0.0000000000000000e+00  1.2063008912227868e-02 1.5357876778776158e-02 0.0000000000000000e+00  1.1677440447762163e-02 1.4497773164057461e-02 0.0000000000000000e+00  1.1261661869474478e-02 1.3678334044307952e-02 0.0000000000000000e+00  1.0818115148877629e-02 1.2900209493131263e-02 0.0000000000000000e+00  1.0349006194640823e-02 1.2164250546434163e-02 0.0000000000000000e+00  9.8565593215633827e-03 1.1469986640761407e-02 0.0000000000000000e+00  9.3424932878087997e-03 1.0817999316366593e-02 0.0000000000000000e+00  8.8088108499840174e-03 1.0207980887299581e-02 0.0000000000000000e+00  8.2575346507102500e-03 9.6410196460645636e-03 0.0000000000000000e+00  7.6900748402473759e-03 9.1162834312503750e-03 0.0000000000000000e+00  7.1082678867507203e-03 8.6336429844294828e-03 0.0000000000000000e+00  6.5135694049636419e-03 8.1938819957552960e-03 0.0000000000000000e+00  5.9076066550304224e-03 7.7960328547977365e-03 0.0000000000000000e+00  5.2917498059982205e-03 7.4394301782627244e-03 0.0000000000000000e+00  4.6669504987836893e-03 7.1255897311852685e-03 0.0000000000000000e+00  4.0346776911605103e-03 6.8530648916380454e-03 0.0000000000000000e+00  3.3960379976817304e-03 6.6219544485241564e-03 0.0000000000000000e+00  2.7519960269870567e-03 6.4318783523522058e-03 0.0000000000000000e+00  2.1041611239609260e-03 6.2834203040238691e-03 0.0000000000000000e+00  1.4530077123033813e-03 6.1756469837160105e-03 0.0000000000000000e+00  8.0009862447035082e-04 6.1083936147786405e-03 0.0000000000000000e+00  1.4584645882584327e-04 6.0824737750323271e-03 0.0000000000000000e+00  -5.0847591178997727e-04 6.0974138146965571e-03 0.0000000000000000e+00  -1.1616997869305704e-03 6.1524300298608590e-03 0.0000000000000000e+00  -1.8131885709983244e-03 6.2481288744979172e-03 0.0000000000000000e+00  -2.4616372282881831e-03 6.3850543159335148e-03 0.0000000000000000e+00  -3.1062838791709093e-03 6.5633341447716188e-03 0.0000000000000000e+00  -3.7457790313903702e-03 6.7825157386552232e-03 0.0000000000000000e+00  -4.3792779744429829e-03 7.0430309219368251e-03 0.0000000000000000e+00  -5.0054515397300768e-03 7.3446623194463505e-03 0.0000000000000000e+00  -5.6233602077288064e-03 7.6879945660689513e-03 0.0000000000000000e+00  -6.2316440824684216e-03 8.0725842606798603e-03 0.0000000000000000e+00  -6.8287423402183392e-03 8.4998058105737948e-03 0.0000000000000000e+00  -7.4138010493385266e-03 8.9685340342268941e-03 0.0000000000000000e+00  -7.9846994913966938e-03 9.4793444038695912e-03 0.0000000000000000e+00  -8.5402516740257922e-03 1.0032361368435296e-02 0.0000000000000000e+00  -9.0788374116343804e-03 1.0627353531648396e-02 0.0000000000000000e+00  -9.5983517805231944e-03 1.1264370715931445e-02 0.0000000000000000e+00  -1.0097607605875933e-02 1.1943732683555522e-02 0.0000000000000000e+00  -1.0573674513218325e-02 1.2665197002238344e-02 0.0000000000000000e+00  -1.1025738990453683e-02 1.3428010214383316e-02 0.0000000000000000e+00  -1.1450510921518919e-02 1.4232034659953057e-02 0.0000000000000000e+00  -1.1846507203601765e-02 1.5077264365736436e-02 0.0000000000000000e+00  -1.2211450601966895e-02 1.5961183766300204e-02 0.0000000000000000e+00  -1.2542689177590507e-02 1.6883571606617472e-02 0.0000000000000000e+00  -1.2838170703337311e-02 1.7844467418384614e-02 0.0000000000000000e+00  -1.3094761695276801e-02 1.8841579859021254e-02 0.0000000000000000e+00  -1.3310993939598770e-02 1.9873375116809717e-02 0.0000000000000000e+00  -1.3482929368347964e-02 2.0938808499682861e-02 0.0000000000000000e+00  -1.3609267042003784e-02 2.2033703953418603e-02 0.0000000000000000e+00  -1.3686970712763770e-02 2.3157717249929197e-02 0.0000000000000000e+00  -1.3713456692240101e-02 2.4307456951202393e-02 0.0000000000000000e+00  -1.3686669789004383e-02 2.5479869587081816e-02 0.0000000000000000e+00  -1.3604004161695545e-02 2.6671412487577862e-02 0.0000000000000000e+00  -1.3463832391871400e-02 2.7878853651535369e-02 0.0000000000000000e+00  -1.3263223219651609e-02 2.9098977642137130e-02 0.0000000000000000e+00  -1.3001741306424199e-02 3.0325448390297386e-02 0.0000000000000000e+00  -1.2677274317038866e-02 3.1555335181225316e-02 0.0000000000000000e+00  -1.2288255319630676e-02 3.2784150625239594e-02 0.0000000000000000e+00  -1.1834221948930343e-02 3.4005857797042412e-02 0.0000000000000000e+00  -1.1314763647061287e-02 3.5215331195369140e-02 0.0000000000000000e+00  -1.0729777053935203e-02 3.6407050178491468e-02 0.0000000000000000e+00  -1.0079578302723392e-02 3.7575797856354606e-02 0.0000000000000000e+00  -9.3639074149028164e-03 3.8716766721197976e-02 0.0000000000000000e+00  -8.5851838362326210e-03 3.9822966479994309e-02 0.0000000000000000e+00  -7.7447601537685481e-03 4.0889194817948053e-02 0.0000000000000000e+00  -6.8440802667035904e-03 4.1910711963862611e-02 0.0000000000000000e+00  -5.8874720617952299e-03 4.2880088251681631e-02 0.0000000000000000e+00  -4.8760371105875406e-03 4.3794269665432130e-02 0.0000000000000000e+00  -3.8144293799463676e-03 4.4647194726064043e-02 0.0000000000000000e+00  -2.7069180821679231e-03 4.5434534353462716e-02 0.0000000000000000e+00  -1.8283859981566345e-03 4.7350672580455506e-02 0.0000000000000000e+00  -2.1187229197388098e-03 4.8608195789092055e-02 0.0000000000000000e+00  -2.4281731779214814e-03 4.9931252829224428e-02 0.0000000000000000e+00  -2.7591003480543219e-03 5.1321599880013502e-02 0.0000000000000000e+00  -3.1119224732371479e-03 5.2785760354521316e-02 0.0000000000000000e+00  -3.4902441692544347e-03 5.4326743279928973e-02 0.0000000000000000e+00  -3.8904758986672279e-03 5.5950270622294886e-02 0.0000000000000000e+00  -4.3205393352330271e-03 5.7662876520403139e-02 0.0000000000000000e+00  -4.7809538605116811e-03 5.9468933555547276e-02 0.0000000000000000e+00  -5.2700948274852170e-03 6.1376754353197706e-02 0.0000000000000000e+00  -5.7927732653572485e-03 6.3392850487203195e-02 0.0000000000000000e+00  -6.3532178910702918e-03 6.5523519287403742e-02 0.0000000000000000e+00  -6.9537528612341956e-03 6.7779092814643907e-02 0.0000000000000000e+00  -7.6000203640701766e-03 7.0163711799763898e-02 0.0000000000000000e+00  -8.2919295854452981e-03 7.2690273067365294e-02 0.0000000000000000e+00  -9.0368115484020673e-03 7.5366631881511312e-02 0.0000000000000000e+00  -9.8426796880562353e-03 7.8197729198401497e-02 0.0000000000000000e+00  -1.0708771954370193e-02 8.1198453442671820e-02 0.0000000000000000e+00  -1.1643113816354057e-02 8.4372306495709842e-02 0.0000000000000000e+00  -1.2654153122408413e-02 8.7722461947016772e-02 0.0000000000000000e+00  -1.3738658245059085e-02 9.1257835147426622e-02 0.0000000000000000e+00  -1.4899993157450596e-02 9.4972505787560405e-02 0.0000000000000000e+00  -1.6125906259406866e-02 9.8860912667477568e-02 0.0000000000000000e+00  -1.7395376271907684e-02 1.0290963114918227e-01 0.0000000000000000e+00  -1.8661031626170738e-02 1.0709615279105592e-01 0.0000000000000000e+00  -1.9860154280563962e-02 1.1136919547897157e-01 0.0000000000000000e+00  -2.0866105824093768e-02 1.1567816446911364e-01 0.0000000000000000e+00  -2.1523739615166130e-02 1.1993784617171059e-01 0.0000000000000000e+00  -2.1554462958416769e-02 1.2403133055603346e-01 0.0000000000000000e+00  -2.0645576470536071e-02 1.2782588490434185e-01 0.0000000000000000e+00  -1.8351337240652868e-02 1.3114277258583970e-01 0.0000000000000000e+00  -1.4154379718298676e-02 1.3378649222580771e-01 0.0000000000000000e+00  -7.5173692252004497e-03 1.3550279659629361e-01 0.0000000000000000e+00  2.0228467450224999e-03 1.3612544492334319e-01 0.0000000000000000e+00  1.4589880717576373e-02 1.3541148737829573e-01 0.0000000000000000e+00  2.9716636261123329e-02 1.3330067250501035e-01 0.0000000000000000e+00  4.6056474708436643e-02 1.2962714875794082e-01 0.0000000000000000e+00  6.1228611521205206e-02 1.2447916304560674e-01 0.0000000000000000e+00  7.1998135525047052e-02 1.1753811439549239e-01 0.0000000000000000e+00  7.4553697236123651e-02 1.0911892941525751e-01 0.0000000000000000e+00  6.4928665480709080e-02 9.9354814651389109e-02 0.0000000000000000e+00  4.0790560205950864e-02 8.9450748571472061e-02 0.0000000000000000e+00  3.4685421918456802e-03 8.3120681879969072e-02 0.0000000000000000e+00  -3.7305963356575288e-02 8.3807331967535661e-02 0.0000000000000000e+00  -6.6891507438545106e-02 9.4499325209534510e-02 0.0000000000000000e+00  -7.5120551164476995e-02 1.1322288278813185e-01 0.0000000000000000e+00  -6.6058396615608680e-02 1.3285495001909298e-01 0.0000000000000000e+00  -5.2185238429125293e-02 1.4862597420990684e-01 0.0000000000000000e+00  -3.9715141821195329e-02 1.5905180916129263e-01 0.0000000000000000e+00  -2.9560938543025085e-02 1.6539415778098701e-01 0.0000000000000000e+00  -2.1260312063242612e-02 1.6883665347042354e-01 0.0000000000000000e+00  -1.4357534976296623e-02 1.7014490336240212e-01 0.0000000000000000e+00  -8.5891858446456269e-03 1.6983848265358809e-01 0.0000000000000000e+00  -3.7398411896231794e-03 1.6826976161219620e-01 0.0000000000000000e+00  2.7307423750558090e-04 1.6571105247831808e-01 0.0000000000000000e+00  3.5776745781705014e-03 1.6237979513494480e-01 0.0000000000000000e+00  6.2411206035322244e-03 1.5847216830141528e-01 0.0000000000000000e+00  8.3390537164080864e-03 1.5413967653265648e-01 0.0000000000000000e+00  9.9430973903883810e-03 1.4951090784591692e-01 0.0000000000000000e+00  1.1118430320550262e-02 1.4469412686593500e-01 0.0000000000000000e+00  1.1933512685903728e-02 1.3977219008744268e-01 0.0000000000000000e+00  1.2442133451269394e-02 1.3482377850693444e-01 0.0000000000000000e+00  1.2698773509567204e-02 1.2990800898857172e-01 0.0000000000000000e+00  1.2748338708414761e-02 1.2506826077202643e-01 0.0000000000000000e+00  1.2633653827352539e-02 1.2034140793058645e-01 0.0000000000000000e+00  1.2392960944551413e-02 1.1574993147729015e-01 0.0000000000000000e+00  1.2056021978573543e-02 1.1131976979097896e-01 0.0000000000000000e+00  1.1651925814020683e-02 1.0704935280436227e-01 0.0000000000000000e+00  1.1195877628357019e-02 1.0296226041276069e-01 0.0000000000000000e+00  1.0708070392147048e-02 9.9047636963181501e-02 0.0000000000000000e+00  1.0197495076877032e-02 9.5313030363615756e-02 0.0000000000000000e+00  9.6723653052993522e-03 9.1755904009125117e-02 0.0000000000000000e+00  9.1432554299907282e-03 8.8373801420954967e-02 0.0000000000000000e+00  8.6192050568128630e-03 8.5155725093378376e-02 0.0000000000000000e+00  8.1029729517400617e-03 8.2095475609268789e-02 0.0000000000000000e+00  7.5944077034235061e-03 7.9193355451301017e-02 0.0000000000000000e+00  7.1015789544088947e-03 7.6432953865956152e-02 0.0000000000000000e+00  6.6174948904511388e-03 7.3813981407304899e-02 0.0000000000000000e+00  6.1505744289083002e-03 7.1324888511102844e-02 0.0000000000000000e+00  5.6998754077745061e-03 6.8961356923314787e-02 0.0000000000000000e+00  5.2644963921661897e-03 6.6715811620405879e-02 0.0000000000000000e+00  4.8454244348878446e-03 6.4580502928741998e-02 0.0000000000000000e+00  4.4429379379712763e-03 6.2551592767282727e-02 0.0000000000000000e+00  4.0574140143522673e-03 6.0619850757962196e-02 0.0000000000000000e+00  3.6865234805635080e-03 5.8783109552665858e-02 0.0000000000000000e+00  3.3325541040112668e-03 5.7032950308446247e-02 0.0000000000000000e+00  2.9955240710097049e-03 5.5366600692010680e-02 0.0000000000000000e+00  2.6731354668615838e-03 5.3777934305612216e-02 0.0000000000000000e+00  2.3658983334432625e-03 5.2263895573153744e-02 0.0000000000000000e+00  2.0728339318250985e-03 5.0819008379474513e-02 0.0000000000000000e+00  1.7952831457592711e-03 4.9440640778245795e-02 0.0000000000000000e+00  1.5329543446844834e-03 4.8123907160197751e-02 0.0000000000000000e+00  1.2842688804841724e-03 4.6866863103351544e-02 0.0000000000000000e+00  1.0485927207881070e-03 4.5665455312599981e-02 0.0000000000000000e+00  8.2694514294703999e-04 4.4516503725965828e-02 0.0000000000000000e+00  6.1728208506689215e-04 4.3418138660556438e-02 0.0000000000000000e+00  4.2075311366315609e-04 4.2366603127343666e-02 0.0000000000000000e+00  2.3752933771775111e-04 4.1360307424882246e-02 0.0000000000000000e+00  6.5851485250176768e-05 4.0397358886786056e-02 0.0000000000000000e+00  7.9396974291697929e-04 3.8943131301800382e-02 0.0000000000000000e+00  1.6544573583837188e-03 3.8360348951888598e-02 0.0000000000000000e+00  2.4846220436468350e-03 3.7729066082549723e-02 0.0000000000000000e+00  3.2810039347326049e-03 3.7052601286909459e-02 0.0000000000000000e+00  4.0418833533898404e-03 3.6333391614372039e-02 0.0000000000000000e+00  4.7642168160651407e-03 3.5575581419919358e-02 0.0000000000000000e+00  5.4468244610617958e-03 3.4781353066577758e-02 0.0000000000000000e+00  6.0871006472088063e-03 3.3954878722306181e-02 0.0000000000000000e+00  6.6837714405584350e-03 3.3099390882305658e-02 0.0000000000000000e+00  7.2362836348177917e-03 3.2217973294172635e-02 0.0000000000000000e+00  7.7429227501480359e-03 3.1314599735705308e-02 0.0000000000000000e+00  8.2030170492750337e-03 3.0393719947073222e-02 0.0000000000000000e+00  8.6161667069800559e-03 2.9458217806771853e-02 0.0000000000000000e+00  8.9816742469057947e-03 2.8512504429561481e-02 0.0000000000000000e+00  9.3006499473280574e-03 2.7558725602714048e-02 0.0000000000000000e+00  9.5724620775722406e-03 2.6601557269334174e-02 0.0000000000000000e+00  9.7977548962967387e-03 2.5644550951848921e-02 0.0000000000000000e+00  9.9774063876726746e-03 2.4690450625886626e-02 0.0000000000000000e+00  1.0112157513727255e-02 2.3742150540789823e-02 0.0000000000000000e+00  1.0202723222265548e-02 2.2803560310347120e-02 0.0000000000000000e+00  1.0250598500963881e-02 2.1876842955909567e-02 0.0000000000000000e+00  1.0256807034649044e-02 2.0965169289242903e-02 0.0000000000000000e+00  1.0222646867882190e-02 2.0071071247961585e-02 0.0000000000000000e+00  1.0150150167524590e-02 1.9195885405352452e-02 0.0000000000000000e+00  1.0040401044530063e-02 1.8342531976754509e-02 0.0000000000000000e+00  9.8950175024815259e-03 1.7512807600877901e-02 0.0000000000000000e+00  9.7158472154911489e-03 1.6708588097127219e-02 0.0000000000000000e+00  9.5046794835426402e-03 1.5930790868132951e-02 0.0000000000000000e+00  9.2630158249820335e-03 1.5182070786503363e-02 0.0000000000000000e+00  8.9924192736275162e-03 1.4462976758995041e-02 0.0000000000000000e+00  8.6949566553862854e-03 1.3774694066629444e-02 0.0000000000000000e+00  8.3721148232093669e-03 1.3118159633802504e-02 0.0000000000000000e+00  8.0257341374672161e-03 1.2494009313856167e-02 0.0000000000000000e+00  7.6572282755609615e-03 1.1903533697105303e-02 0.0000000000000000e+00  7.2684279263787767e-03 1.1347037402415041e-02 0.0000000000000000e+00  6.8608806350689399e-03 1.0825500561256564e-02 0.0000000000000000e+00  6.4358630442421213e-03 1.0338525585872378e-02 0.0000000000000000e+00  5.9951558492750941e-03 9.8871598759603749e-03 0.0000000000000000e+00  5.5399356282278163e-03 9.4714026672918748e-03 0.0000000000000000e+00  5.0719985405756444e-03 9.0911571511464607e-03 0.0000000000000000e+00  4.5924476545512530e-03 8.7474145326312900e-03 0.0000000000000000e+00  4.1025032734807740e-03 8.4406676006987414e-03 0.0000000000000000e+00  3.6036410857925847e-03 8.1696402152478999e-03 0.0000000000000000e+00  3.0968367718370053e-03 7.9351557803538086e-03 0.0000000000000000e+00  2.5833952042721487e-03 7.7370833034370911e-03 0.0000000000000000e+00  2.0646261741720478e-03 7.5755698869735396e-03 0.0000000000000000e+00  1.5414264667281288e-03 7.4501456098817727e-03 0.0000000000000000e+00  1.0154262159003606e-03 7.3617022507472931e-03 0.0000000000000000e+00  4.8719031823870826e-04 7.3102375705978136e-03 0.0000000000000000e+00  -4.1815144517105279e-05 7.2949538904575279e-03 0.0000000000000000e+00  -5.7071346816347287e-04 7.3160823427762985e-03 0.0000000000000000e+00  -1.0984250730530166e-03 7.3741392397634973e-03 0.0000000000000000e+00  -1.6235398741614572e-03 7.4689335774572882e-03 0.0000000000000000e+00  -2.1451627679853150e-03 7.6001302699678086e-03 0.0000000000000000e+00  -2.6620909914529963e-03 7.7676160764345572e-03 0.0000000000000000e+00  -3.1734369714446521e-03 7.9715375752014792e-03 0.0000000000000000e+00  -3.6776665997624888e-03 8.2116687609241016e-03 0.0000000000000000e+00  -4.1738274367421127e-03 8.4884812530877634e-03 0.0000000000000000e+00  -4.6605140626089026e-03 8.8014437990206352e-03 0.0000000000000000e+00  -5.1364292703831079e-03 9.1508687979659983e-03 0.0000000000000000e+00  -5.6005678823631069e-03 9.5356186594802456e-03 0.0000000000000000e+00  -6.0511278419056458e-03 9.9564866455651383e-03 0.0000000000000000e+00  -6.4872184446523222e-03 1.0412764549836927e-02 0.0000000000000000e+00  -6.9071033115165568e-03 1.0904166494161871e-02 0.0000000000000000e+00  -7.3092553501912880e-03 1.1430401865405044e-02 0.0000000000000000e+00  -7.6923028489742622e-03 1.1991047072195140e-02 0.0000000000000000e+00  -8.0544192175600951e-03 1.2585288263825210e-02 0.0000000000000000e+00  -8.3945787050499765e-03 1.3212207217433082e-02 0.0000000000000000e+00  -8.7103577749302174e-03 1.3871681155595511e-02 0.0000000000000000e+00  -9.0009438819731204e-03 1.4562349200171082e-02 0.0000000000000000e+00  -9.2641100293700054e-03 1.5283082946729263e-02 0.0000000000000000e+00  -9.4981362751171694e-03 1.6033742595678250e-02 0.0000000000000000e+00  -9.7015198002957242e-03 1.6812701319635203e-02 0.0000000000000000e+00  -9.8726628702004663e-03 1.7617460759949615e-02 0.0000000000000000e+00  -1.0010081191325839e-02 1.8447218480910046e-02 0.0000000000000000e+00  -1.0111351856919228e-02 1.9299930487501404e-02 0.0000000000000000e+00  -1.0176043529456443e-02 