<?xml version="1.0"?>
<VTKFile type="UnstructuredGrid"  version="0.1"  >
<UnstructuredGrid>
<Piece  NumberOfPoints="16275" NumberOfCells="32468">
<Points>
<DataArray  type="Float64"  NumberOfComponents="3"  format="ascii">-0.5 0.5 0  0.5 0.5 0  0.5 -0.5 0  -0.5 -0.5 0  -1 1 0  1 1 0  1 -1 0  -1 -1 0  -0.4900000000000277 0.5 0  -0.4800000000000555 0.5 0  -0.4700000000000832 0.5 0  -0.4600000000001109 0.5 0  -0.4500000000001387 0.5 0  -0.4400000000001664 0.5 0  -0.4300000000001942 0.5 0  -0.4200000000002219 0.5 0  -0.4100000000002497 0.5 0  -0.4000000000002774 0.5 0  -0.3900000000003052 0.5 0  -0.3800000000003328 0.5 0  -0.3700000000003606 0.5 0  -0.3600000000003883 0.5 0  -0.3500000000004161 0.5 0  -0.3400000000004438 0.5 0  -0.3300000000004716 0.5 0  -0.3200000000004993 0.5 0  -0.3100000000005271 0.5 0  -0.3000000000005548 0.5 0  -0.2900000000005825 0.5 0  -0.2800000000006103 0.5 0  -0.2700000000006381 0.5 0  -0.2600000000006658 0.5 0  -0.2500000000006935 0.5 0  -0.2400000000007212 0.5 0  -0.230000000000749 0.5 0  -0.2200000000007767 0.5 0  -0.2100000000008044 0.5 0  -0.2000000000008322 0.5 0  -0.19000000000086 0.5 0  -0.1800000000008877 0.5 0  -0.1700000000009154 0.5 0  -0.1600000000009431 0.5 0  -0.1500000000009709 0.5 0  -0.1400000000009986 0.5 0  -0.1300000000010264 0.5 0  -0.1200000000010541 0.5 0  -0.1100000000010818 0.5 0  -0.1000000000011096 0.5 0  -0.09000000000113734 0.5 0  -0.08000000000116503 0.5 0  -0.07000000000119283 0.5 0  -0.06000000000122058 0.5 0  -0.05000000000124827 0.5 0  -0.04000000000127607 0.5 0  -0.03000000000130376 0.5 0  -0.02000000000133151 0.5 0  -0.01000000000135925 0.5 0  -1.376121439022882e-12 0.5 0  0.009999999998640763 0.5 0  0.01999999999866864 0.5 0  0.02999999999869629 0.5 0  0.03999999999872406 0.5 0  0.04999999999875182 0.5 0  0.05999999999877947 0.5 0  0.06999999999880724 0.5 0  0.079999999998835 0.5 0  0.08999999999886266 0.5 0  0.09999999999889042 0.5 0  0.1099999999989182 0.5 0  0.1199999999989459 0.5 0  0.1299999999989737 0.5 0  0.1399999999990014 0.5 0  0.1499999999990291 0.5 0  0.1599999999990568 0.5 0  0.1699999999990847 0.5 0  0.1799999999991124 0.5 0  0.1899999999991401 0.5 0  0.1999999999991678 0.5 0  0.2099999999991955 0.5 0  0.2199999999992234 0.5 0  0.2299999999992511 0.5 0  0.2399999999992788 0.5 0  0.2499999999993066 0.5 0  0.2599999999993342 0.5 0  0.269999999999362 0.5 0  0.2799999999993897 0.5 0  0.2899999999994175 0.5 0  0.2999999999994452 0.5 0  0.3099999999994729 0.5 0  0.3199999999995007 0.5 0  0.3299999999995284 0.5 0  0.3399999999995562 0.5 0  0.3499999999995839 0.5 0  0.3599999999996116 0.5 0  0.3699999999996393 0.5 0  0.379999999999667 0.5 0  0.3899999999996949 0.5 0  0.3999999999997226 0.5 0  0.4099999999997503 0.5 0  0.419999999999778 0.5 0  0.4299999999998058 0.5 0  0.4399999999998336 0.5 0  0.4499999999998613 0.5 0  0.4599999999998891 0.5 0  0.4699999999999167 0.5 0  0.4799999999999445 0.5 0  0.4899999999999722 0.5 0  0.5 0.4900000000000277 0  0.5 0.4800000000000555 0  0.5 0.4700000000000832 0  0.5 0.4600000000001109 0  0.5 0.4500000000001387 0  0.5 0.4400000000001664 0  0.5 0.4300000000001942 0  0.5 0.4200000000002219 0  0.5 0.4100000000002497 0  0.5 0.4000000000002774 0  0.5 0.3900000000003052 0  0.5 0.3800000000003328 0  0.5 0.3700000000003606 0  0.5 0.3600000000003883 0  0.5 0.3500000000004161 0  0.5 0.3400000000004438 0  0.5 0.3300000000004716 0  0.5 0.3200000000004993 0  0.5 0.3100000000005271 0  0.5 0.3000000000005548 0  0.5 0.2900000000005825 0  0.5 0.2800000000006103 0  0.5 0.2700000000006381 0  0.5 0.2600000000006658 0  0.5 0.2500000000006935 0  0.5 0.2400000000007212 0  0.5 0.230000000000749 0  0.5 0.2200000000007767 0  0.5 0.2100000000008044 0  0.5 0.2000000000008322 0  0.5 0.19000000000086 0  0.5 0.1800000000008877 0  0.5 0.1700000000009154 0  0.5 0.1600000000009431 0  0.5 0.1500000000009709 0  0.5 0.1400000000009986 0  0.5 0.1300000000010264 0  0.5 0.1200000000010541 0  0.5 0.1100000000010818 0  0.5 0.1000000000011096 0  0.5 0.09000000000113734 0  0.5 0.08000000000116503 0  0.5 0.07000000000119283 0  0.5 0.06000000000122058 0  0.5 0.05000000000124827 0  0.5 0.04000000000127607 0  0.5 0.03000000000130376 0  0.5 0.02000000000133151 0  0.5 0.01000000000135925 0  0.5 1.376121439022882e-12 0  0.5 -0.009999999998640763 0  0.5 -0.01999999999866864 0  0.5 -0.02999999999869629 0  0.5 -0.03999999999872406 0  0.5 -0.04999999999875182 0  0.5 -0.05999999999877947 0  0.5 -0.06999999999880724 0  0.5 -0.079999999998835 0  0.5 -0.08999999999886266 0  0.5 -0.09999999999889042 0  0.5 -0.1099999999989182 0  0.5 -0.1199999999989459 0  0.5 -0.1299999999989737 0  0.5 -0.1399999999990014 0  0.5 -0.1499999999990291 0  0.5 -0.1599999999990568 0  0.5 -0.1699999999990847 0  0.5 -0.1799999999991124 0  0.5 -0.1899999999991401 0  0.5 -0.1999999999991678 0  0.5 -0.2099999999991955 0  0.5 -0.2199999999992234 0  0.5 -0.2299999999992511 0  0.5 -0.2399999999992788 0  0.5 -0.2499999999993066 0  0.5 -0.2599999999993342 0  0.5 -0.269999999999362 0  0.5 -0.2799999999993897 0  0.5 -0.2899999999994175 0  0.5 -0.2999999999994452 0  0.5 -0.3099999999994729 0  0.5 -0.3199999999995007 0  0.5 -0.3299999999995284 0  0.5 -0.3399999999995562 0  0.5 -0.3499999999995839 0  0.5 -0.3599999999996116 0  0.5 -0.3699999999996393 0  0.5 -0.379999999999667 0  0.5 -0.3899999999996949 0  0.5 -0.3999999999997226 0  0.5 -0.4099999999997503 0  0.5 -0.419999999999778 0  0.5 -0.4299999999998058 0  0.5 -0.4399999999998336 0  0.5 -0.4499999999998613 0  0.5 -0.4599999999998891 0  0.5 -0.4699999999999167 0  0.5 -0.4799999999999445 0  0.5 -0.4899999999999722 0  0.4900000000000277 -0.5 0  0.4800000000000555 -0.5 0  0.4700000000000832 -0.5 0  0.4600000000001109 -0.5 0  0.4500000000001387 -0.5 0  0.4400000000001664 -0.5 0  0.4300000000001942 -0.5 0  0.4200000000002219 -0.5 0  0.4100000000002497 -0.5 0  0.4000000000002774 -0.5 0  0.3900000000003052 -0.5 0  0.3800000000003328 -0.5 0  0.3700000000003606 -0.5 0  0.3600000000003883 -0.5 0  0.3500000000004161 -0.5 0  0.3400000000004438 -0.5 0  0.3300000000004716 -0.5 0  0.3200000000004993 -0.5 0  0.3100000000005271 -0.5 0  0.3000000000005548 -0.5 0  0.2900000000005825 -0.5 0  0.2800000000006103 -0.5 0  0.2700000000006381 -0.5 0  0.2600000000006658 -0.5 0  0.2500000000006935 -0.5 0  0.2400000000007212 -0.5 0  0.230000000000749 -0.5 0  0.2200000000007767 -0.5 0  0.2100000000008044 -0.5 0  0.2000000000008322 -0.5 0  0.19000000000086 -0.5 0  0.1800000000008877 -0.5 0  0.1700000000009154 -0.5 0  0.1600000000009431 -0.5 0  0.1500000000009709 -0.5 0  0.1400000000009986 -0.5 0  0.1300000000010264 -0.5 0  0.1200000000010541 -0.5 0  0.1100000000010818 -0.5 0  0.1000000000011096 -0.5 0  0.09000000000113734 -0.5 0  0.08000000000116503 -0.5 0  0.07000000000119283 -0.5 0  0.06000000000122058 -0.5 0  0.05000000000124827 -0.5 0  0.04000000000127607 -0.5 0  0.03000000000130376 -0.5 0  0.02000000000133151 -0.5 0  0.01000000000135925 -0.5 0  1.376121439022882e-12 -0.5 0  -0.009999999998640763 -0.5 0  -0.01999999999866864 -0.5 0  -0.02999999999869629 -0.5 0  -0.03999999999872406 -0.5 0  -0.04999999999875182 -0.5 0  -0.05999999999877947 -0.5 0  -0.06999999999880724 -0.5 0  -0.079999999998835 -0.5 0  -0.08999999999886266 -0.5 0  -0.09999999999889042 -0.5 0  -0.1099999999989182 -0.5 0  -0.1199999999989459 -0.5 0  -0.1299999999989737 -0.5 0  -0.1399999999990014 -0.5 0  -0.1499999999990291 -0.5 0  -0.1599999999990568 -0.5 0  -0.1699999999990847 -0.5 0  -0.1799999999991124 -0.5 0  -0.1899999999991401 -0.5 0  -0.1999999999991678 -0.5 0  -0.2099999999991955 -0.5 0  -0.2199999999992234 -0.5 0  -0.2299999999992511 -0.5 0  -0.2399999999992788 -0.5 0  -0.2499999999993066 -0.5 0  -0.2599999999993342 -0.5 0  -0.269999999999362 -0.5 0  -0.2799999999993897 -0.5 0  -0.2899999999994175 -0.5 0  -0.2999999999994452 -0.5 0  -0.3099999999994729 -0.5 0  -0.3199999999995007 -0.5 0  -0.3299999999995284 -0.5 0  -0.3399999999995562 -0.5 0  -0.3499999999995839 -0.5 0  -0.3599999999996116 -0.5 0  -0.3699999999996393 -0.5 0  -0.379999999999667 -0.5 0  -0.3899999999996949 -0.5 0  -0.3999999999997226 -0.5 0  -0.4099999999997503 -0.5 0  -0.419999999999778 -0.5 0  -0.4299999999998058 -0.5 0  -0.4399999999998336 -0.5 0  -0.4499999999998613 -0.5 0  -0.4599999999998891 -0.5 0  -0.4699999999999167 -0.5 0  -0.4799999999999445 -0.5 0  -0.4899999999999722 -0.5 0  -0.5 -0.4900000000000277 0  -0.5 -0.4800000000000555 0  -0.5 -0.4700000000000832 0  -0.5 -0.4600000000001109 0  -0.5 -0.4500000000001387 0  -0.5 -0.4400000000001664 0  -0.5 -0.4300000000001942 0  -0.5 -0.4200000000002219 0  -0.5 -0.4100000000002497 0  -0.5 -0.4000000000002774 0  -0.5 -0.3900000000003052 0  -0.5 -0.3800000000003328 0  -0.5 -0.3700000000003606 0  -0.5 -0.3600000000003883 0  -0.5 -0.3500000000004161 0  -0.5 -0.3400000000004438 0  -0.5 -0.3300000000004716 0  -0.5 -0.3200000000004993 0  -0.5 -0.3100000000005271 0  -0.5 -0.3000000000005548 0  -0.5 -0.2900000000005825 0  -0.5 -0.2800000000006103 0  -0.5 -0.2700000000006381 0  -0.5 -0.2600000000006658 0  -0.5 -0.2500000000006935 0  -0.5 -0.2400000000007212 0  -0.5 -0.230000000000749 0  -0.5 -0.2200000000007767 0  -0.5 -0.2100000000008044 0  -0.5 -0.2000000000008322 0  -0.5 -0.19000000000086 0  -0.5 -0.1800000000008877 0  -0.5 -0.1700000000009154 0  -0.5 -0.1600000000009431 0  -0.5 -0.1500000000009709 0  -0.5 -0.1400000000009986 0  -0.5 -0.1300000000010264 0  -0.5 -0.1200000000010541 0  -0.5 -0.1100000000010818 0  -0.5 -0.1000000000011096 0  -0.5 -0.09000000000113734 0  -0.5 -0.08000000000116503 0  -0.5 -0.07000000000119283 0  -0.5 -0.06000000000122058 0  -0.5 -0.05000000000124827 0  -0.5 -0.04000000000127607 0  -0.5 -0.03000000000130376 0  -0.5 -0.02000000000133151 0  -0.5 -0.01000000000135925 0  -0.5 -1.376121439022882e-12 0  -0.5 0.009999999998640763 0  -0.5 0.01999999999866864 0  -0.5 0.02999999999869629 0  -0.5 0.03999999999872406 0  -0.5 0.04999999999875182 0  -0.5 0.05999999999877947 0  -0.5 0.06999999999880724 0  -0.5 0.079999999998835 0  -0.5 0.08999999999886266 0  -0.5 0.09999999999889042
[...]
<PointData  Vectors="f_27-0"> 
<DataArray  type="Float64"  Name="f_27-0"  NumberOfComponents="3" format="ascii">5.4601730015824807e-04 4.3319541116922197e-02 0.0000000000000000e+00  -8.3329403842113460e-04 4.3295331248828534e-02 0.0000000000000000e+00  4.5252798558221072e-04 4.1884676847593311e-02 0.0000000000000000e+00  -2.3468470332239339e-04 4.1866352056446267e-02 0.0000000000000000e+00  -1.7919941786240748e-03 6.8725015443500369e-03 0.0000000000000000e+00  1.9188755955996037e-03 6.6809367295359787e-03 0.0000000000000000e+00  -1.6878898270318223e-03 6.9025954468592597e-03 0.0000000000000000e+00  1.8471087578906243e-03 6.6654840873982060e-03 0.0000000000000000e+00  1.5871491137564959e-03 4.2706223998235412e-02 0.0000000000000000e+00  2.5876848722200239e-03 4.2033129017617438e-02 0.0000000000000000e+00  3.5538858338361660e-03 4.1301482337760743e-02 0.0000000000000000e+00  4.4814775848231563e-03 4.0515625817840906e-02 0.0000000000000000e+00  5.3618969198629737e-03 3.9677921035387503e-02 0.0000000000000000e+00  6.1977324459524096e-03 3.8794684374401790e-02 0.0000000000000000e+00  6.9830960828118020e-03 3.7866308393156030e-02 0.0000000000000000e+00  7.7183717358004257e-03 3.6900025137926111e-02 0.0000000000000000e+00  8.3995011000815734e-03 3.5901999179661685e-02 0.0000000000000000e+00  9.0248461329022998e-03 3.4872742207246656e-02 0.0000000000000000e+00  9.5977072313918142e-03 3.3821015830887660e-02 0.0000000000000000e+00  1.0111776321777528e-02 3.2748820026204210e-02 0.0000000000000000e+00  1.0569619874066908e-02 3.1660386359808876e-02 0.0000000000000000e+00  1.0971424441757891e-02 3.0560177897785899e-02 0.0000000000000000e+00  1.1314710226408954e-02 2.9456519813568328e-02 0.0000000000000000e+00  1.1603607693096886e-02 2.8351245527651624e-02 0.0000000000000000e+00  1.1837285630529538e-02 2.7245020308256068e-02 0.0000000000000000e+00  1.2015628340739640e-02 2.6147102833566211e-02 0.0000000000000000e+00  1.2141987601797308e-02 2.5059151861663912e-02 0.0000000000000000e+00  1.2217277567672135e-02 2.3984267218831502e-02 0.0000000000000000e+00  1.2242322096924999e-02 2.2926246906416713e-02 0.0000000000000000e+00  1.2219475292318408e-02 2.1886921965244225e-02 0.0000000000000000e+00  1.2152050765125088e-02 2.0870151354834970e-02 0.0000000000000000e+00  1.2039068582859977e-02 1.9878567725614284e-02 0.0000000000000000e+00  1.1883717070357493e-02 1.8912876685359827e-02 0.0000000000000000e+00  1.1691380169538405e-02 1.7977699449873777e-02 0.0000000000000000e+00  1.1458216390889769e-02 1.7073795272928044e-02 0.0000000000000000e+00  1.1191424181305205e-02 1.6203546762375676e-02 0.0000000000000000e+00  1.0890641538042584e-02 1.5364000399636122e-02 0.0000000000000000e+00  1.0559423758559073e-02 1.4561595420196515e-02 0.0000000000000000e+00  1.0197153080915294e-02 1.3792995608560527e-02 0.0000000000000000e+00  9.8097268843858280e-03 1.3062137201119685e-02 0.0000000000000000e+00  9.3959145298075485e-03 1.2370769839355452e-02 0.0000000000000000e+00  8.9597517164222984e-03 1.1717435226420854e-02 0.0000000000000000e+00  8.5018670233657900e-03 1.1102445056831450e-02 0.0000000000000000e+00  8.0229664741517711e-03 1.0521521123497645e-02 0.0000000000000000e+00  7.5291311879368220e-03 9.9858537581010119e-03 0.0000000000000000e+00  7.0145643885655522e-03 9.4879072671741095e-03 0.0000000000000000e+00  6.4897391456433398e-03 9.0282181723017815e-03 0.0000000000000000e+00  5.9474689758461114e-03 8.6111609396264041e-03 0.0000000000000000e+00  5.3969710785348067e-03 8.2316164976794486e-03 0.0000000000000000e+00  4.8346359966439136e-03 7.8917697982287312e-03 0.0000000000000000e+00  4.2621795789246266e-03 7.5926870836135899e-03 0.0000000000000000e+00  3.6832321791170773e-03 7.3312266959285567e-03 0.0000000000000000e+00  3.0965762584176009e-03 7.1113858296665486e-03 0.0000000000000000e+00  2.5035800369466541e-03 6.9286169686096763e-03 0.0000000000000000e+00  1.9077007081092611e-03 6.7874153754610162e-03 0.0000000000000000e+00  1.3067944313412626e-03 6.6836468960928229e-03 0.0000000000000000e+00  7.0729800180840464e-04 6.6186254136142274e-03 0.0000000000000000e+00  1.0190098259177944e-04 6.5959649123141974e-03 0.0000000000000000e+00  -5.0200670173229818e-04 6.6100736585776717e-03 0.0000000000000000e+00  -1.1038449427903747e-03 6.6639000820011137e-03 0.0000000000000000e+00  -1.7047988122349856e-03 6.7550685293262377e-03 0.0000000000000000e+00  -2.3023983969324411e-03 6.8874941395908173e-03 0.0000000000000000e+00  -2.8965570400399962e-03 7.0590392096463268e-03 0.0000000000000000e+00  -3.4837167694335256e-03 7.2697698658373737e-03 0.0000000000000000e+00  -4.0665340825743208e-03 7.5199250797067744e-03 0.0000000000000000e+00  -4.6396518361209683e-03 7.8100711091040479e-03 0.0000000000000000e+00  -5.2056203255038099e-03 8.1401861564484625e-03 0.0000000000000000e+00  -5.7624402780387029e-03 8.5088115149259992e-03 0.0000000000000000e+00  -6.3058023715635665e-03 8.9175738664705496e-03 0.0000000000000000e+00  -6.8383460236245098e-03 9.3663824756190471e-03 0.0000000000000000e+00  -7.3556535107573862e-03 9.8530139714889213e-03 0.0000000000000000e+00  -7.8568816823182709e-03 1.0380123786710634e-02 0.0000000000000000e+00  -8.3414233614302908e-03 1.0947605776714454e-02 0.0000000000000000e+00  -8.8058397373595478e-03 1.1552147816567205e-02 0.0000000000000000e+00  -9.2513626401540174e-03 1.2196098337216726e-02 0.0000000000000000e+00  -9.6714672800434255e-03 1.2880047244785286e-02 0.0000000000000000e+00  -1.0070365040234727e-02 1.3600214814380118e-02 0.0000000000000000e+00  -1.0440508470749201e-02 1.4359140256922335e-02 0.0000000000000000e+00  -1.0781227454837537e-02 1.5155114713489853e-02 0.0000000000000000e+00  -1.1094552885789848e-02 1.5984305879164686e-02 0.0000000000000000e+00  -1.1372574611424843e-02 1.6846111217878271e-02 0.0000000000000000e+00  -1.1619226249988126e-02 1.7742957210535360e-02 0.0000000000000000e+00  -1.1823132755361664e-02 1.8672456270955960e-02 0.0000000000000000e+00  -1.1995640657593041e-02 1.9632241463214038e-02 0.0000000000000000e+00  -1.2120742970433989e-02 2.0620052536763134e-02 0.0000000000000000e+00  -1.2206245985244493e-02 2.1630054929165546e-02 0.0000000000000000e+00  -1.2243984413560940e-02 2.2668208995229807e-02 0.0000000000000000e+00  -1.2235542957510908e-02 2.3724200452152323e-02 0.0000000000000000e+00  -1.2177830927272792e-02 2.4799272047541017e-02 0.0000000000000000e+00  -1.2068933736531335e-02 2.5886414827208798e-02 0.0000000000000000e+00  -1.1908112755847005e-02 2.6985748202512334e-02 0.0000000000000000e+00  -1.1691896518512237e-02 2.8095197771763138e-02 0.0000000000000000e+00  -1.1421800633521495e-02 2.9205003878766057e-02 0.0000000000000000e+00  -1.1095789805034546e-02 3.0316076656948503e-02 0.0000000000000000e+00  -1.0712102964522307e-02 3.1422141664883850e-02 0.0000000000000000e+00  -1.0271694650180900e-02 3.2518558136133364e-02 0.0000000000000000e+00  -9.7734069435946435e-03 3.3601915036892610e-02 0.0000000000000000e+00  -9.2196179941154265e-03 3.4666095485238364e-02 0.0000000000000000e+00  -8.6076178448072031e-03 3.5707561303495200e-02 0.0000000000000000e+00  -7.9400314849328631e-03 3.6721660352260974e-02 0.0000000000000000e+00  -7.2186170687898931e-03 3.7701799903179657e-02 0.0000000000000000e+00  -6.4448953795019550e-03 3.8647223715415742e-02 0.0000000000000000e+00  -5.6206854466194110e-03 3.9552086863151578e-02 0.0000000000000000e+00  -4.7503006960179636e-03 4.0407949722127905e-02 0.0000000000000000e+00  -3.8294952627329262e-03 4.1215339856946767e-02 0.0000000000000000e+00  -2.8696273956664133e-03 4.1966256324957076e-02 0.0000000000000000e+00  -1.8726223611985596e-03 4.2659775824408705e-02 0.0000000000000000e+00  -1.0568052172349608e-03 4.4376908704080703e-02 0.0000000000000000e+00  -1.2947204918880705e-03 4.5498390193807629e-02 0.0000000000000000e+00  -1.5480384984041654e-03 4.6682440789244363e-02 0.0000000000000000e+00  -1.8147728259632829e-03 4.7919175542918302e-02 0.0000000000000000e+00  -2.0993553054675014e-03 4.9219303250358948e-02 0.0000000000000000e+00  -2.4143155528724017e-03 5.0589587111443013e-02 0.0000000000000000e+00  -2.7295029230064343e-03 5.2015668618735710e-02 0.0000000000000000e+00  -3.0729853396490453e-03 5.3529260976052047e-02 0.0000000000000000e+00  -3.4404086210070490e-03 5.5110541838468821e-02 0.0000000000000000e+00  -3.8204322277237417e-03 5.6780101908503487e-02 0.0000000000000000e+00  -4.2279337791257142e-03 5.8540749066725857e-02 0.0000000000000000e+00  -4.6618259874607855e-03 6.0391059680896440e-02 0.0000000000000000e+00  -5.1217770500318442e-03 6.2350521478442514e-02 0.0000000000000000e+00  -5.6056369626718673e-03 6.4407422550518914e-02 0.0000000000000000e+00  -6.1170016243869332e-03 6.6586835944480810e-02 0.0000000000000000e+00  -6.6648243218300415e-03 6.8892755833038014e-02 0.0000000000000000e+00  -7.2501862597900745e-03 7.1322216084237069e-02 0.0000000000000000e+00  -7.8622677360115599e-03 7.3899048439389450e-02 0.0000000000000000e+00  -8.5024792517302203e-03 7.6624199925455147e-02 0.0000000000000000e+00  -9.1908246113051317e-03 7.9505440573214917e-02 0.0000000000000000e+00  -9.9256269177120139e-03 8.2557588438131255e-02 0.0000000000000000e+00  -1.0704307068153385e-02 8.5785309798980927e-02 0.0000000000000000e+00  -1.1536486240094982e-02 8.9204696826334237e-02 0.0000000000000000e+00  -1.2406354844629831e-02 9.2801564497376574e-02 0.0000000000000000e+00  -1.3298604652986209e-02 9.6623910185542727e-02 0.0000000000000000e+00  -1.4245956323767576e-02 1.0061626688176294e-01 0.0000000000000000e+00  -1.5216275695709313e-02 1.0484157696723780e-01 0.0000000000000000e+00  -1.6167729624078687e-02 1.0923142951752923e-01 0.0000000000000000e+00  -1.7105670519798954e-02 1.1381673365948596e-01 0.0000000000000000e+00  -1.7987656915221160e-02 1.1853809610016823e-01 0.0000000000000000e+00  -1.8714892284590615e-02 1.2338393656923173e-01 0.0000000000000000e+00  -1.9162021647544089e-02 1.2825441623704761e-01 0.0000000000000000e+00  -1.9246890500276722e-02 1.3312424228492201e-01 0.0000000000000000e+00  -1.8795526598662335e-02 1.3780962366407717e-01 0.0000000000000000e+00  -1.7567028362466972e-02 1.4221216129736136e-01 0.0000000000000000e+00  -1.5266183661423599e-02 1.4610423372683704e-01 0.0000000000000000e+00  -1.1689791628554722e-02 1.4925357470347422e-01 0.0000000000000000e+00  -6.3494172003206485e-03 1.5133818945035168e-01 0.0000000000000000e+00  1.0441989506098403e-03 1.5195354409245024e-01 0.0000000000000000e+00  1.0990162434824331e-02 1.5070055076874977e-01 0.0000000000000000e+00  2.3549735079864229e-02 1.4693571692817636e-01 0.0000000000000000e+00  3.8941906154959433e-02 1.4018007652096864e-01 0.0000000000000000e+00  5.6364509763612486e-02 1.2984394755730808e-01 0.0000000000000000e+00  7.3972809370670606e-02 1.1556799780005715e-01 0.0000000000000000e+00  8.7810030019722984e-02 9.7723107219654382e-02 0.0000000000000000e+00  9.1086022570178907e-02 7.7204233616339324e-02 0.0000000000000000e+00  7.5165719290638242e-02 5.6729434230670533e-02 0.0000000000000000e+00  3.5532981178319982e-02 3.9263349784305339e-02 0.0000000000000000e+00  -2.2953455251515910e-02 3.2118093007984350e-02 0.0000000000000000e+00  -7.6782856817885867e-02 4.2097392611006007e-02 0.0000000000000000e+00  -9.7743519169592313e-02 6.7329429057665008e-02 0.0000000000000000e+00  -8.9149690505021612e-02 9.7929947067117037e-02 0.0000000000000000e+00  -6.9317005158836736e-02 1.2194817976710684e-01 0.0000000000000000e+00  -5.0422466440353489e-02 1.3846243328139093e-01 0.0000000000000000e+00  -3.4736415791710835e-02 1.4905773497254238e-01 0.0000000000000000e+00  -2.2027193897001866e-02 1.5552880972007341e-01 0.0000000000000000e+00  -1.1777231805995804e-02 1.5870899393728771e-01 0.0000000000000000e+00  -3.7156595709477032e-03 1.5961274469661907e-01 0.0000000000000000e+00  2.5820832722897044e-03 1.5860535964999076e-01 0.0000000000000000e+00  7.3554016086195551e-03 1.5637728739937123e-01 0.0000000000000000e+00  1.0889549613054175e-02 1.5310437161641016e-01 0.0000000000000000e+00  1.3385185652700575e-02 1.4916248348078825e-01 0.0000000000000000e+00  1.5049291995959571e-02 1.4473049296770427e-01 0.0000000000000000e+00  1.6034135994104082e-02 1.3999524472117031e-01 0.0000000000000000e+00  1.6485542169288325e-02 1.3508936878082040e-01 0.0000000000000000e+00  1.6560141846292235e-02 1.3013425978589829e-01 0.0000000000000000e+00  1.6313113450447076e-02 1.2518897940794588e-01 0.0000000000000000e+00  1.5886791337283702e-02 1.2032055515428811e-01 0.0000000000000000e+00  1.5284664025247590e-02 1.1559089512477831e-01 0.0000000000000000e+00  1.4616947518018713e-02 1.1099429857575796e-01 0.0000000000000000e+00  1.3881394559924095e-02 1.0659405310189535e-01 0.0000000000000000e+00  1.3145055864800302e-02 1.0235915627765485e-01 0.0000000000000000e+00  1.2372480573283608e-02 9.8364819713825130e-02 0.0000000000000000e+00  1.1642348077351341e-02 9.4513912762488148e-02 0.0000000000000000e+00  1.0896782839843928e-02 9.0888858475046380e-02 0.0000000000000000e+00  1.0176388254685406e-02 8.7436870850014073e-02 0.0000000000000000e+00  9.5094102801416194e-03 8.4173414803765528e-02 0.0000000000000000e+00  8.8624572482081439e-03 8.1081590273900495e-02 0.0000000000000000e+00  8.2347447745252673e-03 7.8152028543942098e-02 0.0000000000000000e+00  7.6382976851965510e-03 7.5385586468711505e-02 0.0000000000000000e+00  7.0750372156279081e-03 7.2759800819051965e-02 0.0000000000000000e+00  6.5371961264057395e-03 7.0279262756027000e-02 0.0000000000000000e+00  6.0209761246027378e-03 6.7927995915975786e-02 0.0000000000000000e+00  5.5438310230807395e-03 6.5695495131556828e-02 0.0000000000000000e+00  5.0794564595759229e-03 6.3587585690167717e-02 0.0000000000000000e+00  4.6356430390937751e-03 6.1582375594337053e-02 0.0000000000000000e+00  4.2181398218441180e-03 5.9678832036381788e-02 0.0000000000000000e+00  3.8230984480369080e-03 5.7873477510636213e-02 0.0000000000000000e+00  3.4515305810734489e-03 5.6153419339640388e-02 0.0000000000000000e+00  3.0942683311929813e-03 5.4526016136727778e-02 0.0000000000000000e+00  2.7534358884448574e-03 5.2970371586688374e-02 0.0000000000000000e+00  2.4318279878677413e-03 5.1493045338672390e-02 0.0000000000000000e+00  2.1332806650480162e-03 5.0084660286256626e-02 0.0000000000000000e+00  1.8494815345270405e-03 4.8740993859700814e-02 0.0000000000000000e+00  1.5797544539835734e-03 4.7466257925767912e-02 0.0000000000000000e+00  1.3256315888076032e-03 4.6246388004343782e-02 0.0000000000000000e+00  1.0869902861325470e-03 4.5078313644829435e-02 0.0000000000000000e+00  8.5892808810358217e-04 4.3968272437363433e-02 0.0000000000000000e+00  6.4912495303333438e-04 4.2905867406343563e-02 0.0000000000000000e+00  1.4366016918721830e-03 4.1294165432655315e-02 0.0000000000000000e+00  2.3814209366943202e-03 4.0642631001091091e-02 0.0000000000000000e+00  3.2899695023498733e-03 3.9938175867813105e-02 0.0000000000000000e+00  4.1626987391024470e-03 3.9184614041273547e-02 0.0000000000000000e+00  4.9910675466292983e-03 3.8382034611321031e-02 0.0000000000000000e+00  5.7774558090818535e-03 3.7539041639018639e-02 0.0000000000000000e+00  6.5147239666289332e-03 3.6650596279673535e-02 0.0000000000000000e+00  7.2088174388942501e-03 3.5728343143442011e-02 0.0000000000000000e+00  7.8487716390478034e-03 3.4779514449426348e-02 0.0000000000000000e+00  8.4380400676242993e-03 3.3797119714825956e-02 0.0000000000000000e+00  8.9767742330383715e-03 3.2796083295943752e-02 0.0000000000000000e+00  9.4626592928225145e-03 3.1777084291519798e-02 0.0000000000000000e+00  9.8932892465539522e-03 3.0742149216539793e-02 0.0000000000000000e+00  1.0272847961101561e-02 2.9697155174460966e-02 0.0000000000000000e+00  1.0597902461752644e-02 2.8645871679589225e-02 0.0000000000000000e+00  1.0871612541685508e-02 2.7597182317437994e-02 0.0000000000000000e+00  1.1091461335942696e-02 2.6545049007064191e-02 0.0000000000000000e+00  1.1262065036269045e-02 2.5499542968771671e-02 0.0000000000000000e+00  1.1382783754675135e-02 2.4463243081662311e-02 0.0000000000000000e+00  1.1455333234500467e-02 2.3441055933857428e-02 0.0000000000000000e+00  1.1481516266742259e-02 2.2433769493098388e-02 0.0000000000000000e+00  1.1460487504166212e-02 2.1443239344671447e-02 0.0000000000000000e+00  1.1399013843233392e-02 2.0476814996697245e-02 0.0000000000000000e+00  1.1293340086169661e-02 1.9529269576985139e-02 0.0000000000000000e+00  1.1148189034610676e-02 1.8608608110119450e-02 0.0000000000000000e+00  1.0966625706894507e-02 1.7716192240212602e-02 0.0000000000000000e+00  1.0747824611925177e-02 1.6854243445545064e-02 0.0000000000000000e+00  1.0496310557145321e-02 1.6022222818275995e-02 0.0000000000000000e+00  1.0210366573870557e-02 1.5221254862733498e-02 0.0000000000000000e+00  9.8977214155615122e-03 1.4455769513512214e-02 0.0000000000000000e+00  9.5537401438749499e-03 1.3720105941645782e-02 0.0000000000000000e+00  9.1869761676846365e-03 1.3022332321204883e-02 0.0000000000000000e+00  8.7935474563030133e-03 1.2360109531035713e-02 0.0000000000000000e+00  8.3787122088927034e-03 1.1735317501484436e-02 0.0000000000000000e+00  7.9430425933341813e-03 1.1146527142656671e-02 0.0000000000000000e+00  7.4868421834312629e-03 1.0591755920565368e-02 0.0000000000000000e+00  7.0166161510552758e-03 1.0080814381896916e-02 0.0000000000000000e+00  6.5249528957724845e-03 9.6049427775536083e-03 0.0000000000000000e+00  6.0255151453634534e-03 9.1674824763776259e-03 0.0000000000000000e+00  5.5071411497649974e-03 8.7702641908607732e-03 0.0000000000000000e+00  4.9816966490934447e-03 8.4094482862985161e-03 0.0000000000000000e+00  4.4440535186388418e-03 8.0892383575560077e-03 0.0000000000000000e+00  3.8977441731886447e-03 7.8060062910518630e-03 0.0000000000000000e+00  3.3442361632288753e-03 7.5603579424360886e-03 0.0000000000000000e+00  2.7834503695787433e-03 7.3554472367233234e-03 0.0000000000000000e+00  2.2169369777803819e-03 7.1857280057745134e-03 0.0000000000000000e+00  1.6479126562878564e-03 7.0564919678377620e-03 0.0000000000000000e+00  1.0729571140918521e-03 6.9624744858117794e-03 0.0000000000000000e+00  5.0132953950076959e-04 6.9086679309075319e-03 0.0000000000000000e+00  -7.6429737466874497e-05 6.8970116587469691e-03 0.0000000000000000e+00  -6.5271898870746198e-04 6.9187152961680248e-03 0.0000000000000000e+00  -1.2265297969607689e-03 6.9810366883250648e-03 0.0000000000000000e+00  -1.7986122531633917e-03 7.0802766122625973e-03 0.0000000000000000e+00  -2.3668555661943160e-03 7.2193471568437863e-03 0.0000000000000000e+00  -2.9312655210294515e-03 7.3956037308922059e-03 0.0000000000000000e+00  -3.4880862840623718e-03 7.6104760321693485e-03 0.0000000000000000e+00  -4.0407211213635665e-03 7.8624959740443128e-03 0.0000000000000000e+00  -4.5826430708327398e-03 8.1547401676601242e-03 0.0000000000000000e+00  -5.1169312441835960e-03 8.4861106009843697e-03 0.0000000000000000e+00  -5.6411514747992378e-03 8.8554034821590501e-03 0.0000000000000000e+00  -6.1517669243330540e-03 9.2610015843704735e-03 0.0000000000000000e+00  -6.6501942957735444e-03 9.7068511592348899e-03 0.0000000000000000e+00  -7.1335826520770029e-03 1.0187966959385888e-02 0.0000000000000000e+00  -7.6001736366003670e-03 1.0708936439322343e-02 0.0000000000000000e+00  -8.0492234974239660e-03 1.1269369746900473e-02 0.0000000000000000e+00  -8.4786771204978448e-03 1.1865187852873518e-02 0.0000000000000000e+00  -8.8862129075129130e-03 1.2496404021754020e-02 0.0000000000000000e+00  -9.2704754024272688e-03 1.3165939088286052e-02 0.0000000000000000e+00  -9.6315445774171858e-03 1.3869820066300184e-02 0.0000000000000000e+00  -9.9649358611828952e-03 1.4608834482671605e-02 0.0000000000000000e+00  -1.0268695035442000e-02 1.5382285318589031e-02 0.0000000000000000e+00  -1.0544296073066931e-02 1.6188234124696863e-02 0.0000000000000000e+00  -1.0785323926786751e-02 1.7024377424458632e-02 0.0000000000000000e+00  -1.0994832979984761e-02 1.7889690394444144e-02 0.0000000000000000e+00  -1.1162631925144139e-02 1.8786085406838644e-02 0.0000000000000000e+00  -1.1298987288124293e-02 1.9711923321830315e-02 0.0000000000000000e+00  -1.1390532290256701e