<?xml version="1.0"?>
<VTKFile type="UnstructuredGrid"  version="0.1"  >
<UnstructuredGrid>
<Piece  NumberOfPoints="16275" NumberOfCells="32468">
<Points>
<DataArray  type="Float64"  NumberOfComponents="3"  format="ascii">-0.5 0.5 0  0.5 0.5 0  0.5 -0.5 0  -0.5 -0.5 0  -1 1 0  1 1 0  1 -1 0  -1 -1 0  -0.4900000000000277 0.5 0  -0.4800000000000555 0.5 0  -0.4700000000000832 0.5 0  -0.4600000000001109 0.5 0  -0.4500000000001387 0.5 0  -0.4400000000001664 0.5 0  -0.4300000000001942 0.5 0  -0.4200000000002219 0.5 0  -0.4100000000002497 0.5 0  -0.4000000000002774 0.5 0  -0.3900000000003052 0.5 0  -0.3800000000003328 0.5 0  -0.3700000000003606 0.5 0  -0.3600000000003883 0.5 0  -0.3500000000004161 0.5 0  -0.3400000000004438 0.5 0  -0.3300000000004716 0.5 0  -0.3200000000004993 0.5 0  -0.3100000000005271 0.5 0  -0.3000000000005548 0.5 0  -0.2900000000005825 0.5 0  -0.2800000000006103 0.5 0  -0.2700000000006381 0.5 0  -0.2600000000006658 0.5 0  -0.2500000000006935 0.5 0  -0.2400000000007212 0.5 0  -0.230000000000749 0.5 0  -0.2200000000007767 0.5 0  -0.2100000000008044 0.5 0  -0.2000000000008322 0.5 0  -0.19000000000086 0.5 0  -0.1800000000008877 0.5 0  -0.1700000000009154 0.5 0  -0.1600000000009431 0.5 0  -0.1500000000009709 0.5 0  -0.1400000000009986 0.5 0  -0.1300000000010264 0.5 0  -0.1200000000010541 0.5 0  -0.1100000000010818 0.5 0  -0.1000000000011096 0.5 0  -0.09000000000113734 0.5 0  -0.08000000000116503 0.5 0  -0.07000000000119283 0.5 0  -0.06000000000122058 0.5 0  -0.05000000000124827 0.5 0  -0.04000000000127607 0.5 0  -0.03000000000130376 0.5 0  -0.02000000000133151 0.5 0  -0.01000000000135925 0.5 0  -1.376121439022882e-12 0.5 0  0.009999999998640763 0.5 0  0.01999999999866864 0.5 0  0.02999999999869629 0.5 0  0.03999999999872406 0.5 0  0.04999999999875182 0.5 0  0.05999999999877947 0.5 0  0.06999999999880724 0.5 0  0.079999999998835 0.5 0  0.08999999999886266 0.5 0  0.09999999999889042 0.5 0  0.1099999999989182 0.5 0  0.1199999999989459 0.5 0  0.1299999999989737 0.5 0  0.1399999999990014 0.5 0  0.1499999999990291 0.5 0  0.1599999999990568 0.5 0  0.1699999999990847 0.5 0  0.1799999999991124 0.5 0  0.1899999999991401 0.5 0  0.1999999999991678 0.5 0  0.2099999999991955 0.5 0  0.2199999999992234 0.5 0  0.2299999999992511 0.5 0  0.2399999999992788 0.5 0  0.2499999999993066 0.5 0  0.2599999999993342 0.5 0  0.269999999999362 0.5 0  0.2799999999993897 0.5 0  0.2899999999994175 0.5 0  0.2999999999994452 0.5 0  0.3099999999994729 0.5 0  0.3199999999995007 0.5 0  0.3299999999995284 0.5 0  0.3399999999995562 0.5 0  0.3499999999995839 0.5 0  0.3599999999996116 0.5 0  0.3699999999996393 0.5 0  0.379999999999667 0.5 0  0.3899999999996949 0.5 0  0.3999999999997226 0.5 0  0.4099999999997503 0.5 0  0.419999999999778 0.5 0  0.4299999999998058 0.5 0  0.4399999999998336 0.5 0  0.4499999999998613 0.5 0  0.4599999999998891 0.5 0  0.4699999999999167 0.5 0  0.4799999999999445 0.5 0  0.4899999999999722 0.5 0  0.5 0.4900000000000277 0  0.5 0.4800000000000555 0  0.5 0.4700000000000832 0  0.5 0.4600000000001109 0  0.5 0.4500000000001387 0  0.5 0.4400000000001664 0  0.5 0.4300000000001942 0  0.5 0.4200000000002219 0  0.5 0.4100000000002497 0  0.5 0.4000000000002774 0  0.5 0.3900000000003052 0  0.5 0.3800000000003328 0  0.5 0.3700000000003606 0  0.5 0.3600000000003883 0  0.5 0.3500000000004161 0  0.5 0.3400000000004438 0  0.5 0.3300000000004716 0  0.5 0.3200000000004993 0  0.5 0.3100000000005271 0  0.5 0.3000000000005548 0  0.5 0.2900000000005825 0  0.5 0.2800000000006103 0  0.5 0.2700000000006381 0  0.5 0.2600000000006658 0  0.5 0.2500000000006935 0  0.5 0.2400000000007212 0  0.5 0.230000000000749 0  0.5 0.2200000000007767 0  0.5 0.2100000000008044 0  0.5 0.2000000000008322 0  0.5 0.19000000000086 0  0.5 0.1800000000008877 0  0.5 0.1700000000009154 0  0.5 0.1600000000009431 0  0.5 0.1500000000009709 0  0.5 0.1400000000009986 0  0.5 0.1300000000010264 0  0.5 0.1200000000010541 0  0.5 0.1100000000010818 0  0.5 0.1000000000011096 0  0.5 0.09000000000113734 0  0.5 0.08000000000116503 0  0.5 0.07000000000119283 0  0.5 0.06000000000122058 0  0.5 0.05000000000124827 0  0.5 0.04000000000127607 0  0.5 0.03000000000130376 0  0.5 0.02000000000133151 0  0.5 0.01000000000135925 0  0.5 1.376121439022882e-12 0  0.5 -0.009999999998640763 0  0.5 -0.01999999999866864 0  0.5 -0.02999999999869629 0  0.5 -0.03999999999872406 0  0.5 -0.04999999999875182 0  0.5 -0.05999999999877947 0  0.5 -0.06999999999880724 0  0.5 -0.079999999998835 0  0.5 -0.08999999999886266 0  0.5 -0.09999999999889042 0  0.5 -0.1099999999989182 0  0.5 -0.1199999999989459 0  0.5 -0.1299999999989737 0  0.5 -0.1399999999990014 0  0.5 -0.1499999999990291 0  0.5 -0.1599999999990568 0  0.5 -0.1699999999990847 0  0.5 -0.1799999999991124 0  0.5 -0.1899999999991401 0  0.5 -0.1999999999991678 0  0.5 -0.2099999999991955 0  0.5 -0.2199999999992234 0  0.5 -0.2299999999992511 0  0.5 -0.2399999999992788 0  0.5 -0.2499999999993066 0  0.5 -0.2599999999993342 0  0.5 -0.269999999999362 0  0.5 -0.2799999999993897 0  0.5 -0.2899999999994175 0  0.5 -0.2999999999994452 0  0.5 -0.3099999999994729 0  0.5 -0.3199999999995007 0  0.5 -0.3299999999995284 0  0.5 -0.3399999999995562 0  0.5 -0.3499999999995839 0  0.5 -0.3599999999996116 0  0.5 -0.3699999999996393 0  0.5 -0.379999999999667 0  0.5 -0.3899999999996949 0  0.5 -0.3999999999997226 0  0.5 -0.4099999999997503 0  0.5 -0.419999999999778 0  0.5 -0.4299999999998058 0  0.5 -0.4399999999998336 0  0.5 -0.4499999999998613 0  0.5 -0.4599999999998891 0  0.5 -0.4699999999999167 0  0.5 -0.4799999999999445 0  0.5 -0.4899999999999722 0  0.4900000000000277 -0.5 0  0.4800000000000555 -0.5 0  0.4700000000000832 -0.5 0  0.4600000000001109 -0.5 0  0.4500000000001387 -0.5 0  0.4400000000001664 -0.5 0  0.4300000000001942 -0.5 0  0.4200000000002219 -0.5 0  0.4100000000002497 -0.5 0  0.4000000000002774 -0.5 0  0.3900000000003052 -0.5 0  0.3800000000003328 -0.5 0  0.3700000000003606 -0.5 0  0.3600000000003883 -0.5 0  0.3500000000004161 -0.5 0  0.3400000000004438 -0.5 0  0.3300000000004716 -0.5 0  0.3200000000004993 -0.5 0  0.3100000000005271 -0.5 0  0.3000000000005548 -0.5 0  0.2900000000005825 -0.5 0  0.2800000000006103 -0.5 0  0.2700000000006381 -0.5 0  0.2600000000006658 -0.5 0  0.2500000000006935 -0.5 0  0.2400000000007212 -0.5 0  0.230000000000749 -0.5 0  0.2200000000007767 -0.5 0  0.2100000000008044 -0.5 0  0.2000000000008322 -0.5 0  0.19000000000086 -0.5 0  0.1800000000008877 -0.5 0  0.1700000000009154 -0.5 0  0.1600000000009431 -0.5 0  0.1500000000009709 -0.5 0  0.1400000000009986 -0.5 0  0.1300000000010264 -0.5 0  0.1200000000010541 -0.5 0  0.1100000000010818 -0.5 0  0.1000000000011096 -0.5 0  0.09000000000113734 -0.5 0  0.08000000000116503 -0.5 0  0.07000000000119283 -0.5 0  0.06000000000122058 -0.5 0  0.05000000000124827 -0.5 0  0.04000000000127607 -0.5 0  0.03000000000130376 -0.5 0  0.02000000000133151 -0.5 0  0.01000000000135925 -0.5 0  1.376121439022882e-12 -0.5 0  -0.009999999998640763 -0.5 0  -0.01999999999866864 -0.5 0  -0.02999999999869629 -0.5 0  -0.03999999999872406 -0.5 0  -0.04999999999875182 -0.5 0  -0.05999999999877947 -0.5 0  -0.06999999999880724 -0.5 0  -0.079999999998835 -0.5 0  -0.08999999999886266 -0.5 0  -0.09999999999889042 -0.5 0  -0.1099999999989182 -0.5 0  -0.1199999999989459 -0.5 0  -0.1299999999989737 -0.5 0  -0.1399999999990014 -0.5 0  -0.1499999999990291 -0.5 0  -0.1599999999990568 -0.5 0  -0.1699999999990847 -0.5 0  -0.1799999999991124 -0.5 0  -0.1899999999991401 -0.5 0  -0.1999999999991678 -0.5 0  -0.2099999999991955 -0.5 0  -0.2199999999992234 -0.5 0  -0.2299999999992511 -0.5 0  -0.2399999999992788 -0.5 0  -0.2499999999993066 -0.5 0  -0.2599999999993342 -0.5 0  -0.269999999999362 -0.5 0  -0.2799999999993897 -0.5 0  -0.2899999999994175 -0.5 0  -0.2999999999994452 -0.5 0  -0.3099999999994729 -0.5 0  -0.3199999999995007 -0.5 0  -0.3299999999995284 -0.5 0  -0.3399999999995562 -0.5 0  -0.3499999999995839 -0.5 0  -0.3599999999996116 -0.5 0  -0.3699999999996393 -0.5 0  -0.379999999999667 -0.5 0  -0.3899999999996949 -0.5 0  -0.3999999999997226 -0.5 0  -0.4099999999997503 -0.5 0  -0.419999999999778 -0.5 0  -0.4299999999998058 -0.5 0  -0.4399999999998336 -0.5 0  -0.4499999999998613 -0.5 0  -0.4599999999998891 -0.5 0  -0.4699999999999167 -0.5 0  -0.4799999999999445 -0.5 0  -0.4899999999999722 -0.5 0  -0.5 -0.4900000000000277 0  -0.5 -0.4800000000000555 0  -0.5 -0.4700000000000832 0  -0.5 -0.4600000000001109 0  -0.5 -0.4500000000001387 0  -0.5 -0.4400000000001664 0  -0.5 -0.4300000000001942 0  -0.5 -0.4200000000002219 0  -0.5 -0.4100000000002497 0  -0.5 -0.4000000000002774 0  -0.5 -0.3900000000003052 0  -0.5 -0.3800000000003328 0  -0.5 -0.3700000000003606 0  -0.5 -0.3600000000003883 0  -0.5 -0.3500000000004161 0  -0.5 -0.3400000000004438 0  -0.5 -0.3300000000004716 0  -0.5 -0.3200000000004993 0  -0.5 -0.3100000000005271 0  -0.5 -0.3000000000005548 0  -0.5 -0.2900000000005825 0  -0.5 -0.2800000000006103 0  -0.5 -0.2700000000006381 0  -0.5 -0.2600000000006658 0  -0.5 -0.2500000000006935 0  -0.5 -0.2400000000007212 0  -0.5 -0.230000000000749 0  -0.5 -0.2200000000007767 0  -0.5 -0.2100000000008044 0  -0.5 -0.2000000000008322 0  -0.5 -0.19000000000086 0  -0.5 -0.1800000000008877 0  -0.5 -0.1700000000009154 0  -0.5 -0.1600000000009431 0  -0.5 -0.1500000000009709 0  -0.5 -0.1400000000009986 0  -0.5 -0.1300000000010264 0  -0.5 -0.1200000000010541 0  -0.5 -0.1100000000010818 0  -0.5 -0.1000000000011096 0  -0.5 -0.09000000000113734 0  -0.5 -0.08000000000116503 0  -0.5 -0.07000000000119283 0  -0.5 -0.06000000000122058 0  -0.5 -0.05000000000124827 0  -0.5 -0.04000000000127607 0  -0.5 -0.03000000000130376 0  -0.5 -0.02000000000133151 0  -0.5 -0.01000000000135925 0  -0.5 -1.376121439022882e-12 0  -0.5 0.009999999998640763 0  -0.5 0.01999999999866864 0  -0.5 0.02999999999869629 0  -0.5 0.03999999999872406 0  -0.5 0.04999999999875182 0  -0.5 0.05999999999877947 0  -0.5 0.06999999999880724 0  -0.5 0.079999999998835 0  -0.5 0.08999999999886266 0  -0.5 0.09999999999889042
[...]
<PointData  Vectors="f_27-0"> 
<DataArray  type="Float64"  Name="f_27-0"  NumberOfComponents="3" format="ascii">4.7872138296586452e-04 4.2752467840347710e-02 0.0000000000000000e+00  -7.1960331287472946e-04 4.2749284603811048e-02 0.0000000000000000e+00  6.1366832800406829e-04 4.2417668841309833e-02 0.0000000000000000e+00  -3.6257288685946420e-04 4.2431253901921415e-02 0.0000000000000000e+00  -1.9935044449241298e-03 7.2020700679458170e-03 0.0000000000000000e+00  2.2187436229475161e-03 6.8942523449795779e-03 0.0000000000000000e+00  -1.9799580208534366e-03 7.2033558029193047e-03 0.0000000000000000e+00  2.2021589546615569e-03 6.8834515900335980e-03 0.0000000000000000e+00  1.4656593425878162e-03 4.2129034049336912e-02 0.0000000000000000e+00  2.4499621349133860e-03 4.1476490710756250e-02 0.0000000000000000e+00  3.3820233807864588e-03 4.0792295882651416e-02 0.0000000000000000e+00  4.2875921182174547e-03 3.9992427563866631e-02 0.0000000000000000e+00  5.1450307244859756e-03 3.9196623769570484e-02 0.0000000000000000e+00  5.9772677896541559e-03 3.8325003178577580e-02 0.0000000000000000e+00  6.7105761020768940e-03 3.7384226327025490e-02 0.0000000000000000e+00  7.4623051508547443e-03 3.6461572972810150e-02 0.0000000000000000e+00  8.1663253419193942e-03 3.5493190866914638e-02 0.0000000000000000e+00  8.7556978980334182e-03 3.4498940943693872e-02 0.0000000000000000e+00  9.2976572991601680e-03 3.3479056434526977e-02 0.0000000000000000e+00  9.7956840712757828e-03 3.2398979423077429e-02 0.0000000000000000e+00  1.0251904632876353e-02 3.1368177002771808e-02 0.0000000000000000e+00  1.0683438558807988e-02 3.0256934115935833e-02 0.0000000000000000e+00  1.1001474388380743e-02 2.9187016482042877e-02 0.0000000000000000e+00  1.1283489652666283e-02 2.8111282450658422e-02 0.0000000000000000e+00  1.1543919551012981e-02 2.7004790189009042e-02 0.0000000000000000e+00  1.1711718951066985e-02 2.5949662587764512e-02 0.0000000000000000e+00  1.1812650589132830e-02 2.4903781922877597e-02 0.0000000000000000e+00  1.1907982484112642e-02 2.3821910117387754e-02 0.0000000000000000e+00  1.1927769945348495e-02 2.2808078475341480e-02 0.0000000000000000e+00  1.1922826476538511e-02 2.1791318121214057e-02 0.0000000000000000e+00  1.1886986235866514e-02 2.0756933767430326e-02 0.0000000000000000e+00  1.1759698267035936e-02 1.9782801632764878e-02 0.0000000000000000e+00  1.1602159637822356e-02 1.8846672458374434e-02 0.0000000000000000e+00  1.1434919966355010e-02 1.7915598561707491e-02 0.0000000000000000e+00  1.1221416233650579e-02 1.7024206187773991e-02 0.0000000000000000e+00  1.0924427422541523e-02 1.6190665367356014e-02 0.0000000000000000e+00  1.0654921704468847e-02 1.5336490967057314e-02 0.0000000000000000e+00  1.0342670965566056e-02 1.4546525103758541e-02 0.0000000000000000e+00  9.9910861950193563e-03 1.3775268153103251e-02 0.0000000000000000e+00  9.6145518280140365e-03 1.3057845619139670e-02 0.0000000000000000e+00  9.1927474454709945e-03 1.2412586487758968e-02 0.0000000000000000e+00  8.7763009839841172e-03 1.1754328022557877e-02 0.0000000000000000e+00  8.3357558093420710e-03 1.1171595343977318e-02 0.0000000000000000e+00  7.8634853332782053e-03 1.0569983382956005e-02 0.0000000000000000e+00  7.3760890573565316e-03 1.0066320406815352e-02 0.0000000000000000e+00  6.8777298147830500e-03 9.5451485896884628e-03 0.0000000000000000e+00  6.3695652817683359e-03 9.0967505210254214e-03 0.0000000000000000e+00  5.8210303388174936e-03 8.7029120701475754e-03 0.0000000000000000e+00  5.2790045126433916e-03 8.3447956442450656e-03 0.0000000000000000e+00  4.7529034187407983e-03 7.9390539322270800e-03 0.0000000000000000e+00  4.1805179719588683e-03 7.6609286084772660e-03 0.0000000000000000e+00  3.6127350980517717e-03 7.4088274932148871e-03 0.0000000000000000e+00  3.0405073048568581e-03 7.1865809447565253e-03 0.0000000000000000e+00  2.4567813670629060e-03 7.0141058636966460e-03 0.0000000000000000e+00  1.8727719167272506e-03 6.9039537604585824e-03 0.0000000000000000e+00  1.2834116317333780e-03 6.8221027958678508e-03 0.0000000000000000e+00  6.9047139607875910e-04 6.7358121622299681e-03 0.0000000000000000e+00  9.5747218864356627e-05 6.7153384416558382e-03 0.0000000000000000e+00  -4.9614669077741405e-04 6.7650895955318766e-03 0.0000000000000000e+00  -1.0782738389734246e-03 6.7960312508232373e-03 0.0000000000000000e+00  -1.6809008400526656e-03 6.8435902440668710e-03 0.0000000000000000e+00  -2.2772515884221900e-03 6.9624033358966645e-03 0.0000000000000000e+00  -2.8634238008724776e-03 7.1476663870958506e-03 0.0000000000000000e+00  -3.4302140183291546e-03 7.3578116696542207e-03 0.0000000000000000e+00  -3.9956166559211954e-03 7.6401850177577222e-03 0.0000000000000000e+00  -4.5567147789930245e-03 7.9123018413045157e-03 0.0000000000000000e+00  -5.1122833663478362e-03 8.2421968750704608e-03 0.0000000000000000e+00  -5.6706372044614340e-03 8.5696811535907018e-03 0.0000000000000000e+00  -6.1912664812764917e-03 9.0244487893841718e-03 0.0000000000000000e+00  -6.7243434830988342e-03 9.4513475260078073e-03 0.0000000000000000e+00  -7.2238994725117699e-03 9.9473968682189506e-03 0.0000000000000000e+00  -7.7091888645273512e-03 1.0453676536607753e-02 0.0000000000000000e+00  -8.1905773494132545e-03 1.0997282431496081e-02 0.0000000000000000e+00  -8.6569006573704310e-03 1.1579511100624159e-02 0.0000000000000000e+00  -9.1030939860792630e-03 1.2185820017841319e-02 0.0000000000000000e+00  -9.4901053125218890e-03 1.2902015770548940e-02 0.0000000000000000e+00  -9.8928248324187777e-03 1.3598931314082290e-02 0.0000000000000000e+00  -1.0237264620057959e-02 1.4378793798724211e-02 0.0000000000000000e+00  -1.0541079522809107e-02 1.5187919382824789e-02 0.0000000000000000e+00  -1.0845892964144212e-02 1.6001086280391062e-02 0.0000000000000000e+00  -1.1142714651305074e-02 1.6797030159823798e-02 0.0000000000000000e+00  -1.1372468571478426e-02 1.7699988839079292e-02 0.0000000000000000e+00  -1.1553860294851016e-02 1.8615212351493122e-02 0.0000000000000000e+00  -1.1760736522391525e-02 1.9543338498641667e-02 0.0000000000000000e+00  -1.1816854124287620e-02 2.0536631021826571e-02 0.0000000000000000e+00  -1.1919430401007552e-02 2.1518322966534647e-02 0.0000000000000000e+00  -1.1965251818133051e-02 2.2568662876109809e-02 0.0000000000000000e+00  -1.1937821020875058e-02 2.3600453854135169e-02 0.0000000000000000e+00  -1.1867364431059207e-02 2.4654774785497283e-02 0.0000000000000000e+00  -1.1772843333955852e-02 2.5740259641291501e-02 0.0000000000000000e+00  -1.1607072111017833e-02 2.6769301746875557e-02 0.0000000000000000e+00  -1.1351693885134321e-02 2.7909043809681278e-02 0.0000000000000000e+00  -1.1101219537552965e-02 2.8949358693458545e-02 0.0000000000000000e+00  -1.0790144597091088e-02 3.0078982898283625e-02 0.0000000000000000e+00  -1.0390271684695657e-02 3.1146322896622888e-02 0.0000000000000000e+00  -9.9441623668048360e-03 3.2214061673938262e-02 0.0000000000000000e+00  -9.4429438978010493e-03 3.3272579203965889e-02 0.0000000000000000e+00  -8.9384834142891903e-03 3.4329708456992222e-02 0.0000000000000000e+00  -8.3491109811225563e-03 3.5325689916579014e-02 0.0000000000000000e+00  -7.6804357463048966e-03 3.6334645844761822e-02 0.0000000000000000e+00  -6.9620806956196199e-03 3.7266967876347416e-02 0.0000000000000000e+00  -6.2193846413248193e-03 3.8214223386464831e-02 0.0000000000000000e+00  -5.3874532142246332e-03 3.9105289194901159e-02 0.0000000000000000e+00  -4.5501101205276230e-03 3.9909984847584859e-02 0.0000000000000000e+00  -3.6368352880141769e-03 4.0730790771452315e-02 0.0000000000000000e+00  -2.6713526366185744e-03 4.1416566167847280e-02 0.0000000000000000e+00  -1.7243442378647206e-03 4.2074103448675758e-02 0.0000000000000000e+00  -8.8784308682648939e-04 4.3830026958165978e-02 0.0000000000000000e+00  -1.1651858793438827e-03 4.4873535390571741e-02 0.0000000000000000e+00  -1.3938823997853287e-03 4.6081643747424253e-02 0.0000000000000000e+00  -1.6392120986500917e-03 4.7244342866028410e-02 0.0000000000000000e+00  -1.8620711912993306e-03 4.8572938195389874e-02 0.0000000000000000e+00  -2.2497352895987826e-03 4.9872325623656955e-02 0.0000000000000000e+00  -2.4023945879790621e-03 5.1286627398045480e-02 0.0000000000000000e+00  -2.8186995536456571e-03 5.2762528563038501e-02 0.0000000000000000e+00  -3.3173885059507588e-03 5.4248748987084074e-02 0.0000000000000000e+00  -3.6204478361111696e-03 5.5899424302180388e-02 0.0000000000000000e+00  -3.9065139855821752e-03 5.7645305959498981e-02 0.0000000000000000e+00  -4.2946428154321224e-03 5.9415203665786939e-02 0.0000000000000000e+00  -4.7292412006565187e-03 6.1373949973347809e-02 0.0000000000000000e+00  -5.3312272509214928e-03 6.3294955915954271e-02 0.0000000000000000e+00  -5.7237131962095244e-03 6.5463313844902837e-02 0.0000000000000000e+00  -6.2142718849121674e-03 6.7680073393219159e-02 0.0000000000000000e+00  -6.9034900516845047e-03 6.9997613994362218e-02 0.0000000000000000e+00  -7.4046580072931328e-03 7.2511626944626179e-02 0.0000000000000000e+00  -7.8840896057401667e-03 7.5203402966693131e-02 0.0000000000000000e+00  -8.5461589044061557e-03 7.7914679704036691e-02 0.0000000000000000e+00  -9.1853662807578340e-03 8.0907971535381262e-02 0.0000000000000000e+00  -9.9715474479492566e-03 8.4092497381234713e-02 0.0000000000000000e+00  -1.0939367750855709e-02 8.7304201025387870e-02 0.0000000000000000e+00  -1.1658253485558920e-02 9.0774027228523180e-02 0.0000000000000000e+00  -1.2344559226210991e-02 9.4516116168290615e-02 0.0000000000000000e+00  -1.3341460241827136e-02 9.8357238065354347e-02 0.0000000000000000e+00  -1.4206898298384197e-02 1.0251275258127668e-01 0.0000000000000000e+00  -1.5032233110563549e-02 1.0674578220688755e-01 0.0000000000000000e+00  -1.6001840414042446e-02 1.1112698983417510e-01 0.0000000000000000e+00  -1.6897315101532400e-02 1.1593429396450329e-01 0.0000000000000000e+00  -1.7700181087015571e-02 1.2063453240744626e-01 0.0000000000000000e+00  -1.8473802949209531e-02 1.2545296609143802e-01 0.0000000000000000e+00  -1.8412269571792900e-02 1.3073204865977722e-01 0.0000000000000000e+00  -1.8460346091919332e-02 1.3546048042316783e-01 0.0000000000000000e+00  -1.7776521562629644e-02 1.4066808726517202e-01 0.0000000000000000e+00  -1.6711482281478989e-02 1.4486768532719158e-01 0.0000000000000000e+00  -1.4149815258234031e-02 1.4919662276210693e-01 0.0000000000000000e+00  -1.0916921834657782e-02 1.5217629767288138e-01 0.0000000000000000e+00  -5.9323297884014145e-03 1.5463840521271585e-01 0.0000000000000000e+00  8.5107394755151462e-04 1.5532820945646564e-01 0.0000000000000000e+00  9.9337430653665629e-03 1.5429213159103861e-01 0.0000000000000000e+00  2.2192123647731630e-02 1.5084140561999648e-01 0.0000000000000000e+00  3.6438997930786927e-02 1.4403041445530648e-01 0.0000000000000000e+00  5.2848838883734768e-02 1.3334029979378967e-01 0.0000000000000000e+00  7.1911418266671870e-02 1.1866578868038755e-01 0.0000000000000000e+00  8.8676535916482682e-02 9.6806712783935975e-02 0.0000000000000000e+00  9.6548786914514031e-02 7.3654555287452531e-02 0.0000000000000000e+00  8.6494638643578731e-02 4.3961118628815098e-02 0.0000000000000000e+00  4.8920753503501842e-02 2.1161743954655966e-02 0.0000000000000000e+00  -1.7442575741586745e-02 1.0722425290787508e-02 0.0000000000000000e+00  -7.7273022249487108e-02 2.1239875058718515e-02 0.0000000000000000e+00  -1.0272490742620383e-01 5.8110534671066937e-02 0.0000000000000000e+00  -9.4145397779531848e-02 9.1396348668538810e-02 0.0000000000000000e+00  -7.5051421323761552e-02 1.1532645426930807e-01 0.0000000000000000e+00  -5.4172282698116921e-02 1.3267465785678026e-01 0.0000000000000000e+00  -3.7171379703977228e-02 1.4489196144304117e-01 0.0000000000000000e+00  -2.3110183965807794e-02 1.5223054529181559e-01 0.0000000000000000e+00  -1.1700149776010587e-02 1.5559771755073812e-01 0.0000000000000000e+00  -3.0852471734241172e-03 1.5722907813208856e-01 0.0000000000000000e+00  3.4349127275563368e-03 1.5623222723316874e-01 0.0000000000000000e+00  8.5890780461564484e-03 1.5446506622690684e-01 0.0000000000000000e+00  1.2213793995239027e-02 1.5110484267642951e-01 0.0000000000000000e+00  1.4502623657372307e-02 1.4735459317185740e-01 0.0000000000000000e+00  1.6157802580895882e-02 1.4266291177132970e-01 0.0000000000000000e+00  1.7177961110374299e-02 1.3789888914460685e-01 0.0000000000000000e+00  1.7555646732607025e-02 1.3320962104208303e-01 0.0000000000000000e+00  1.7576218670305645e-02 1.2793621788946283e-01 0.0000000000000000e+00  1.7138531602316001e-02 1.2328695071678476e-01 0.0000000000000000e+00  1.6492127310247854e-02 1.1812091777160234e-01 0.0000000000000000e+00  1.5601312218752115e-02 1.1372054442658390e-01 0.0000000000000000e+00  1.4610538349714803e-02 1.0914788593784566e-01 0.0000000000000000e+00  1.3870630410444640e-02 1.0493704093821908e-01 0.0000000000000000e+00  1.3300417769465844e-02 1.0052212687301952e-01 0.0000000000000000e+00  1.2418900388912083e-02 9.6626341468605367e-02 0.0000000000000000e+00  1.1620990074730636e-02 9.2937723315604057e-02 0.0000000000000000e+00  1.0929733401260191e-02 8.9261484367963898e-02 0.0000000000000000e+00  9.8872659281699204e-03 8.5959884193533176e-02 0.0000000000000000e+00  9.3829241306918106e-03 8.2720738333556323e-02 0.0000000000000000e+00  8.7738750349698556e-03 7.9734728242878888e-02 0.0000000000000000e+00  8.0752954622212297e-03 7.6876924519264006e-02 0.0000000000000000e+00  7.4752653217938780e-03 7.4123465684026654e-02 0.0000000000000000e+00  6.9376928313735608e-03 7.1622321089710006e-02 0.0000000000000000e+00  6.3905967980936755e-03 6.9102942277655552e-02 0.0000000000000000e+00  5.7455498120540759e-03 6.6901208472984211e-02 0.0000000000000000e+00  5.3443141231368906e-03 6.4651914954690984e-02 0.0000000000000000e+00  4.9433925673817696e-03 6.2629783528308169e-02 0.0000000000000000e+00  4.3905789467009850e-03 6.0655720874556923e-02 0.0000000000000000e+00  3.9686675239931773e-03 5.8830934629307337e-02 0.0000000000000000e+00  3.6120427137159572e-03 5.7029042958367547e-02 0.0000000000000000e+00  3.3509863177148881e-03 5.5375520837271396e-02 0.0000000000000000e+00  3.0512394842497894e-03 5.3729043212907009e-02 0.0000000000000000e+00  2.6814312185869734e-03 5.2248040364948581e-02 0.0000000000000000e+00  2.3461836981962009e-03 5.0777855806568462e-02 0.0000000000000000e+00  2.1155368645389997e-03 4.9406337731097948e-02 0.0000000000000000e+00  1.7384658513487695e-03 4.8144028656994929e-02 0.0000000000000000e+00  1.5109828422774066e-03 4.6846270820543330e-02 0.0000000000000000e+00  1.2502244050861934e-03 4.5680037148539680e-02 0.0000000000000000e+00  9.1756699817782314e-04 4.4557520787088689e-02 0.0000000000000000e+00  7.0729168128901086e-04 4.3469379342739575e-02 0.0000000000000000e+00  1.5980966324739313e-03 4.1798581184873625e-02 0.0000000000000000e+00  2.5609953994105905e-03 4.1132220216236651e-02 0.0000000000000000e+00  3.4759906589257490e-03 4.0438065686892073e-02 0.0000000000000000e+00  4.3611321629159500e-03 3.9631182711887328e-02 0.0000000000000000e+00  5.1974746176713122e-03 3.8837939935380865e-02 0.0000000000000000e+00  6.0178392298505445e-03 3.7950939932108546e-02 0.0000000000000000e+00  6.7299938782723638e-03 3.7032678493038443e-02 0.0000000000000000e+00  7.4720686006400335e-03 3.6102324944908934e-02 0.0000000000000000e+00  8.1456237371307326e-03 3.5137686405996231e-02 0.0000000000000000e+00  8.7153713069783572e-03 3.4140388305937901e-02 0.0000000000000000e+00  9.2490909610961156e-03 3.3128530383575362e-02 0.0000000000000000e+00  9.7237707249415370e-03 3.2052849236860720e-02 0.0000000000000000e+00  1.0164089328777487e-02 3.1037765005318685e-02 0.0000000000000000e+00  1.0575519521666705e-02 2.9921928536681859e-02 0.0000000000000000e+00  1.0883379935856778e-02 2.8875005265077712e-02 0.0000000000000000e+00  1.1149785084826405e-02 2.7796396247075514e-02 0.0000000000000000e+00  1.1393688073712655e-02 2.6718730283410944e-02 0.0000000000000000e+00  1.1552631606234678e-02 2.5654857393756527e-02 0.0000000000000000e+00  1.1642064185396980e-02 2.4636134347100103e-02 0.0000000000000000e+00  1.1721663295032535e-02 2.3558443993160288e-02 0.0000000000000000e+00  1.1731640888118613e-02 2.2565332288478682e-02 0.0000000000000000e+00  1.1717638269118560e-02 2.1561628600570652e-02 0.0000000000000000e+00  1.1676018517665280e-02 2.0535133393388819e-02 0.0000000000000000e+00  1.1538367452932432e-02 1.9582683353778156e-02 0.0000000000000000e+00  1.1378557505951058e-02 1.8649288945009619e-02 0.0000000000000000e+00  1.1201145708534071e-02 1.7747419730535445e-02 0.0000000000000000e+00  1.0987662041390296e-02 1.6861160553853966e-02 0.0000000000000000e+00  1.0684646364163003e-02 1.6043469901954183e-02 0.0000000000000000e+00  1.0408819103590502e-02 1.5210138323845919e-02 0.0000000000000000e+00  1.0097935000749431e-02 1.4426538004002770e-02 0.0000000000000000e+00  9.7418526767703174e-03 1.3672793438168199e-02 0.0000000000000000e+00  9.3680396329128314e-03 1.2964565089948062e-02 0.0000000000000000e+00  8.9459002270927870e-03 1.2337453886558629e-02 0.0000000000000000e+00  8.5292958732053146e-03 1.1691032464296891e-02 0.0000000000000000e+00  8.0873716609774632e-03 1.1118620953389950e-02 0.0000000000000000e+00  7.6190986760680066e-03 1.0529032216549342e-02 0.0000000000000000e+00  7.1342087065041585e-03 1.0040736897655340e-02 0.0000000000000000e+00  6.6367698669743446e-03 9.5323075636647384e-03 0.0000000000000000e+00  6.1318055215587239e-03 9.0945816479548816e-03 0.0000000000000000e+00  5.5904381880662593e-03 8.7122041755456989e-03 0.0000000000000000e+00  5.0481090909273527e-03 8.3670549359856072e-03 0.0000000000000000e+00  4.5266090353144883e-03 7.9732144945618613e-03 0.0000000000000000e+00  3.9576747926077585e-03 7.7039455508884159e-03 0.0000000000000000e+00  3.3982436878973931e-03 7.4628354445326279e-03 0.0000000000000000e+00  2.8291526403055123e-03 7.2516857635377121e-03 0.0000000000000000e+00  2.2518400084198024e-03 7.0876057062314547e-03 0.0000000000000000e+00  1.6759186935891136e-03 6.9906829758680494e-03 0.0000000000000000e+00  1.0921508520608542e-03 6.9140722696330609e-03 0.0000000000000000e+00  5.0468673397291506e-04 6.8386214689885889e-03 0.0000000000000000e+00  -8.0083215213125369e-05 6.8299145453844801e-03 0.0000000000000000e+00  -6.6503255587384660e-04 6.8872236721355447e-03 0.0000000000000000e+00  -1.2417534856349172e-03 6.9273749776501909e-03 0.0000000000000000e+00  -1.8349113212085134e-03 6.9835450877936567e-03 0.0000000000000000e+00  -2.4214056882813739e-03 7.1120755523376633e-03 0.0000000000000000e+00  -2.9997033568167262e-03 7.3045648205161979e-03 0.0000000000000000e+00  -3.5548416752874908e-03 7.5232445950910998e-03 0.0000000000000000e+00  -4.1116161548611320e-03 7.8144148393768965e-03 0.0000000000000000e+00  -4.6634032228694980e-03 8.0913962198853589e-03 0.0000000000000000e+00  -5.2047142564300604e-03 8.4300752441049363e-03 0.0000000000000000e+00  -5.7548611825966002e-03 8.7670085226505493e-03 0.0000000000000000e+00  -6.2614468309039112e-03 9.2267788110731112e-03 0.0000000000000000e+00  -6.7832889510705601e-03 9.6578273587466981e-03 0.0000000000000000e+00  -7.2681855046178743e-03 1.0161442905724412e-02 0.0000000000000000e+00  -7.7422098746559075e-03 1.0671272063897737e-02 0.0000000000000000e+00  -8.2082357706076917e-03 1.1221715670226451e-02 0.0000000000000000e+00  -8.6619670483449006e-03 1.1807996461410800e-02 0.0000000000000000e+00  -9.0899600082221064e-03 1.2419442544650773e-02 0.0000000000000000e+00  -9.4615614735997396e-03 1.3137874240640142e-02 0.0000000000000000e+00  -9.8452792236281735e-03 1.3834867059155020e-02 0.0000000000000000e+00  -1.0171356142195940e-02 1.4615208186511330e-02 0.0000000000000000e+00  -1.0463827881202960e-02 1.5423625838372139e-02 0.0000000000000000e+00  -1.0751543034277954e-02 1.6241652199255781e-02 0.0000000000000000e+00  -1.1030545759495389e-02 1.7026764034964555e-02 0.0000000000000000e+00  -1.1235537102719143e-02 1.7935449418335799e-02 0.0000000000000000e+00  -1.1406372121560293e-02 1.8838287176907647e-02 0.0000000000000000e+00  -1.1585736942809337e-02 1.9767834798245561e-02 0.0000000000000000e+00  -1.1620259677243805