<?xml version="1.0"?>
<VTKFile type="UnstructuredGrid"  version="0.1"  >
<UnstructuredGrid>
<Piece  NumberOfPoints="16275" NumberOfCells="32468">
<Points>
<DataArray  type="Float64"  NumberOfComponents="3"  format="ascii">-0.5 0.5 0  0.5 0.5 0  0.5 -0.5 0  -0.5 -0.5 0  -1 1 0  1 1 0  1 -1 0  -1 -1 0  -0.4900000000000277 0.5 0  -0.4800000000000555 0.5 0  -0.4700000000000832 0.5 0  -0.4600000000001109 0.5 0  -0.4500000000001387 0.5 0  -0.4400000000001664 0.5 0  -0.4300000000001942 0.5 0  -0.4200000000002219 0.5 0  -0.4100000000002497 0.5 0  -0.4000000000002774 0.5 0  -0.3900000000003052 0.5 0  -0.3800000000003328 0.5 0  -0.3700000000003606 0.5 0  -0.3600000000003883 0.5 0  -0.3500000000004161 0.5 0  -0.3400000000004438 0.5 0  -0.3300000000004716 0.5 0  -0.3200000000004993 0.5 0  -0.3100000000005271 0.5 0  -0.3000000000005548 0.5 0  -0.2900000000005825 0.5 0  -0.2800000000006103 0.5 0  -0.2700000000006381 0.5 0  -0.2600000000006658 0.5 0  -0.2500000000006935 0.5 0  -0.2400000000007212 0.5 0  -0.230000000000749 0.5 0  -0.2200000000007767 0.5 0  -0.2100000000008044 0.5 0  -0.2000000000008322 0.5 0  -0.19000000000086 0.5 0  -0.1800000000008877 0.5 0  -0.1700000000009154 0.5 0  -0.1600000000009431 0.5 0  -0.1500000000009709 0.5 0  -0.1400000000009986 0.5 0  -0.1300000000010264 0.5 0  -0.1200000000010541 0.5 0  -0.1100000000010818 0.5 0  -0.1000000000011096 0.5 0  -0.09000000000113734 0.5 0  -0.08000000000116503 0.5 0  -0.07000000000119283 0.5 0  -0.06000000000122058 0.5 0  -0.05000000000124827 0.5 0  -0.04000000000127607 0.5 0  -0.03000000000130376 0.5 0  -0.02000000000133151 0.5 0  -0.01000000000135925 0.5 0  -1.376121439022882e-12 0.5 0  0.009999999998640763 0.5 0  0.01999999999866864 0.5 0  0.02999999999869629 0.5 0  0.03999999999872406 0.5 0  0.04999999999875182 0.5 0  0.05999999999877947 0.5 0  0.06999999999880724 0.5 0  0.079999999998835 0.5 0  0.08999999999886266 0.5 0  0.09999999999889042 0.5 0  0.1099999999989182 0.5 0  0.1199999999989459 0.5 0  0.1299999999989737 0.5 0  0.1399999999990014 0.5 0  0.1499999999990291 0.5 0  0.1599999999990568 0.5 0  0.1699999999990847 0.5 0  0.1799999999991124 0.5 0  0.1899999999991401 0.5 0  0.1999999999991678 0.5 0  0.2099999999991955 0.5 0  0.2199999999992234 0.5 0  0.2299999999992511 0.5 0  0.2399999999992788 0.5 0  0.2499999999993066 0.5 0  0.2599999999993342 0.5 0  0.269999999999362 0.5 0  0.2799999999993897 0.5 0  0.2899999999994175 0.5 0  0.2999999999994452 0.5 0  0.3099999999994729 0.5 0  0.3199999999995007 0.5 0  0.3299999999995284 0.5 0  0.3399999999995562 0.5 0  0.3499999999995839 0.5 0  0.3599999999996116 0.5 0  0.3699999999996393 0.5 0  0.379999999999667 0.5 0  0.3899999999996949 0.5 0  0.3999999999997226 0.5 0  0.4099999999997503 0.5 0  0.419999999999778 0.5 0  0.4299999999998058 0.5 0  0.4399999999998336 0.5 0  0.4499999999998613 0.5 0  0.4599999999998891 0.5 0  0.4699999999999167 0.5 0  0.4799999999999445 0.5 0  0.4899999999999722 0.5 0  0.5 0.4900000000000277 0  0.5 0.4800000000000555 0  0.5 0.4700000000000832 0  0.5 0.4600000000001109 0  0.5 0.4500000000001387 0  0.5 0.4400000000001664 0  0.5 0.4300000000001942 0  0.5 0.4200000000002219 0  0.5 0.4100000000002497 0  0.5 0.4000000000002774 0  0.5 0.3900000000003052 0  0.5 0.3800000000003328 0  0.5 0.3700000000003606 0  0.5 0.3600000000003883 0  0.5 0.3500000000004161 0  0.5 0.3400000000004438 0  0.5 0.3300000000004716 0  0.5 0.3200000000004993 0  0.5 0.3100000000005271 0  0.5 0.3000000000005548 0  0.5 0.2900000000005825 0  0.5 0.2800000000006103 0  0.5 0.2700000000006381 0  0.5 0.2600000000006658 0  0.5 0.2500000000006935 0  0.5 0.2400000000007212 0  0.5 0.230000000000749 0  0.5 0.2200000000007767 0  0.5 0.2100000000008044 0  0.5 0.2000000000008322 0  0.5 0.19000000000086 0  0.5 0.1800000000008877 0  0.5 0.1700000000009154 0  0.5 0.1600000000009431 0  0.5 0.1500000000009709 0  0.5 0.1400000000009986 0  0.5 0.1300000000010264 0  0.5 0.1200000000010541 0  0.5 0.1100000000010818 0  0.5 0.1000000000011096 0  0.5 0.09000000000113734 0  0.5 0.08000000000116503 0  0.5 0.07000000000119283 0  0.5 0.06000000000122058 0  0.5 0.05000000000124827 0  0.5 0.04000000000127607 0  0.5 0.03000000000130376 0  0.5 0.02000000000133151 0  0.5 0.01000000000135925 0  0.5 1.376121439022882e-12 0  0.5 -0.009999999998640763 0  0.5 -0.01999999999866864 0  0.5 -0.02999999999869629 0  0.5 -0.03999999999872406 0  0.5 -0.04999999999875182 0  0.5 -0.05999999999877947 0  0.5 -0.06999999999880724 0  0.5 -0.079999999998835 0  0.5 -0.08999999999886266 0  0.5 -0.09999999999889042 0  0.5 -0.1099999999989182 0  0.5 -0.1199999999989459 0  0.5 -0.1299999999989737 0  0.5 -0.1399999999990014 0  0.5 -0.1499999999990291 0  0.5 -0.1599999999990568 0  0.5 -0.1699999999990847 0  0.5 -0.1799999999991124 0  0.5 -0.1899999999991401 0  0.5 -0.1999999999991678 0  0.5 -0.2099999999991955 0  0.5 -0.2199999999992234 0  0.5 -0.2299999999992511 0  0.5 -0.2399999999992788 0  0.5 -0.2499999999993066 0  0.5 -0.2599999999993342 0  0.5 -0.269999999999362 0  0.5 -0.2799999999993897 0  0.5 -0.2899999999994175 0  0.5 -0.2999999999994452 0  0.5 -0.3099999999994729 0  0.5 -0.3199999999995007 0  0.5 -0.3299999999995284 0  0.5 -0.3399999999995562 0  0.5 -0.3499999999995839 0  0.5 -0.3599999999996116 0  0.5 -0.3699999999996393 0  0.5 -0.379999999999667 0  0.5 -0.3899999999996949 0  0.5 -0.3999999999997226 0  0.5 -0.4099999999997503 0  0.5 -0.419999999999778 0  0.5 -0.4299999999998058 0  0.5 -0.4399999999998336 0  0.5 -0.4499999999998613 0  0.5 -0.4599999999998891 0  0.5 -0.4699999999999167 0  0.5 -0.4799999999999445 0  0.5 -0.4899999999999722 0  0.4900000000000277 -0.5 0  0.4800000000000555 -0.5 0  0.4700000000000832 -0.5 0  0.4600000000001109 -0.5 0  0.4500000000001387 -0.5 0  0.4400000000001664 -0.5 0  0.4300000000001942 -0.5 0  0.4200000000002219 -0.5 0  0.4100000000002497 -0.5 0  0.4000000000002774 -0.5 0  0.3900000000003052 -0.5 0  0.3800000000003328 -0.5 0  0.3700000000003606 -0.5 0  0.3600000000003883 -0.5 0  0.3500000000004161 -0.5 0  0.3400000000004438 -0.5 0  0.3300000000004716 -0.5 0  0.3200000000004993 -0.5 0  0.3100000000005271 -0.5 0  0.3000000000005548 -0.5 0  0.2900000000005825 -0.5 0  0.2800000000006103 -0.5 0  0.2700000000006381 -0.5 0  0.2600000000006658 -0.5 0  0.2500000000006935 -0.5 0  0.2400000000007212 -0.5 0  0.230000000000749 -0.5 0  0.2200000000007767 -0.5 0  0.2100000000008044 -0.5 0  0.2000000000008322 -0.5 0  0.19000000000086 -0.5 0  0.1800000000008877 -0.5 0  0.1700000000009154 -0.5 0  0.1600000000009431 -0.5 0  0.1500000000009709 -0.5 0  0.1400000000009986 -0.5 0  0.1300000000010264 -0.5 0  0.1200000000010541 -0.5 0  0.1100000000010818 -0.5 0  0.1000000000011096 -0.5 0  0.09000000000113734 -0.5 0  0.08000000000116503 -0.5 0  0.07000000000119283 -0.5 0  0.06000000000122058 -0.5 0  0.05000000000124827 -0.5 0  0.04000000000127607 -0.5 0  0.03000000000130376 -0.5 0  0.02000000000133151 -0.5 0  0.01000000000135925 -0.5 0  1.376121439022882e-12 -0.5 0  -0.009999999998640763 -0.5 0  -0.01999999999866864 -0.5 0  -0.02999999999869629 -0.5 0  -0.03999999999872406 -0.5 0  -0.04999999999875182 -0.5 0  -0.05999999999877947 -0.5 0  -0.06999999999880724 -0.5 0  -0.079999999998835 -0.5 0  -0.08999999999886266 -0.5 0  -0.09999999999889042 -0.5 0  -0.1099999999989182 -0.5 0  -0.1199999999989459 -0.5 0  -0.1299999999989737 -0.5 0  -0.1399999999990014 -0.5 0  -0.1499999999990291 -0.5 0  -0.1599999999990568 -0.5 0  -0.1699999999990847 -0.5 0  -0.1799999999991124 -0.5 0  -0.1899999999991401 -0.5 0  -0.1999999999991678 -0.5 0  -0.2099999999991955 -0.5 0  -0.2199999999992234 -0.5 0  -0.2299999999992511 -0.5 0  -0.2399999999992788 -0.5 0  -0.2499999999993066 -0.5 0  -0.2599999999993342 -0.5 0  -0.269999999999362 -0.5 0  -0.2799999999993897 -0.5 0  -0.2899999999994175 -0.5 0  -0.2999999999994452 -0.5 0  -0.3099999999994729 -0.5 0  -0.3199999999995007 -0.5 0  -0.3299999999995284 -0.5 0  -0.3399999999995562 -0.5 0  -0.3499999999995839 -0.5 0  -0.3599999999996116 -0.5 0  -0.3699999999996393 -0.5 0  -0.379999999999667 -0.5 0  -0.3899999999996949 -0.5 0  -0.3999999999997226 -0.5 0  -0.4099999999997503 -0.5 0  -0.419999999999778 -0.5 0  -0.4299999999998058 -0.5 0  -0.4399999999998336 -0.5 0  -0.4499999999998613 -0.5 0  -0.4599999999998891 -0.5 0  -0.4699999999999167 -0.5 0  -0.4799999999999445 -0.5 0  -0.4899999999999722 -0.5 0  -0.5 -0.4900000000000277 0  -0.5 -0.4800000000000555 0  -0.5 -0.4700000000000832 0  -0.5 -0.4600000000001109 0  -0.5 -0.4500000000001387 0  -0.5 -0.4400000000001664 0  -0.5 -0.4300000000001942 0  -0.5 -0.4200000000002219 0  -0.5 -0.4100000000002497 0  -0.5 -0.4000000000002774 0  -0.5 -0.3900000000003052 0  -0.5 -0.3800000000003328 0  -0.5 -0.3700000000003606 0  -0.5 -0.3600000000003883 0  -0.5 -0.3500000000004161 0  -0.5 -0.3400000000004438 0  -0.5 -0.3300000000004716 0  -0.5 -0.3200000000004993 0  -0.5 -0.3100000000005271 0  -0.5 -0.3000000000005548 0  -0.5 -0.2900000000005825 0  -0.5 -0.2800000000006103 0  -0.5 -0.2700000000006381 0  -0.5 -0.2600000000006658 0  -0.5 -0.2500000000006935 0  -0.5 -0.2400000000007212 0  -0.5 -0.230000000000749 0  -0.5 -0.2200000000007767 0  -0.5 -0.2100000000008044 0  -0.5 -0.2000000000008322 0  -0.5 -0.19000000000086 0  -0.5 -0.1800000000008877 0  -0.5 -0.1700000000009154 0  -0.5 -0.1600000000009431 0  -0.5 -0.1500000000009709 0  -0.5 -0.1400000000009986 0  -0.5 -0.1300000000010264 0  -0.5 -0.1200000000010541 0  -0.5 -0.1100000000010818 0  -0.5 -0.1000000000011096 0  -0.5 -0.09000000000113734 0  -0.5 -0.08000000000116503 0  -0.5 -0.07000000000119283 0  -0.5 -0.06000000000122058 0  -0.5 -0.05000000000124827 0  -0.5 -0.04000000000127607 0  -0.5 -0.03000000000130376 0  -0.5 -0.02000000000133151 0  -0.5 -0.01000000000135925 0  -0.5 -1.376121439022882e-12 0  -0.5 0.009999999998640763 0  -0.5 0.01999999999866864 0  -0.5 0.02999999999869629 0  -0.5 0.03999999999872406 0  -0.5 0.04999999999875182 0  -0.5 0.05999999999877947 0  -0.5 0.06999999999880724 0  -0.5 0.079999999998835 0  -0.5 0.08999999999886266 0  -0.5 0.09999999999889042
[...]
<PointData  Vectors="f_27-0"> 
<DataArray  type="Float64"  Name="f_27-0"  NumberOfComponents="3" format="ascii">4.7590172647875387e-04 4.2823315525429360e-02 0.0000000000000000e+00  -7.2841992869787881e-04 4.2811871719673142e-02 0.0000000000000000e+00  5.8143207057895609e-04 4.2351143167839472e-02 0.0000000000000000e+00  -3.4309396195377211e-04 4.2356425813606581e-02 0.0000000000000000e+00  -1.9641429920837748e-03 7.1552267024693568e-03 0.0000000000000000e+00  2.1755523987368368e-03 6.8637945098086175e-03 0.0000000000000000e+00  -1.9393694975783076e-03 7.1612069874139256e-03 0.0000000000000000e+00  2.1528525235588536e-03 6.8526626597033083e-03 0.0000000000000000e+00  1.4791992102674951e-03 4.2199577972071085e-02 0.0000000000000000e+00  2.4570952904860058e-03 4.1546933675768533e-02 0.0000000000000000e+00  3.4035342285789727e-03 4.0852739591531545e-02 0.0000000000000000e+00  4.3105315953038846e-03 4.0061500750955013e-02 0.0000000000000000e+00  5.1818234445611911e-03 3.9255029144681423e-02 0.0000000000000000e+00  6.0022451300898007e-03 3.8384537301719077e-02 0.0000000000000000e+00  6.7552897382425975e-03 3.7455579891558663e-02 0.0000000000000000e+00  7.4939668523019403e-03 3.6517990919561719e-02 0.0000000000000000e+00  8.1834401092732018e-03 3.5543920725725250e-02 0.0000000000000000e+00  8.7845692017465213e-03 3.4548338044250324e-02 0.0000000000000000e+00  9.3420875177183203e-03 3.3519075657557670e-02 0.0000000000000000e+00  9.8434900391556820e-03 3.2449552229294167e-02 0.0000000000000000e+00  1.0300415659141842e-02 3.1399743391644676e-02 0.0000000000000000e+00  1.0715545738142445e-02 3.0296457398665929e-02 0.0000000000000000e+00  1.1043026919616960e-02 2.9222254969716619e-02 0.0000000000000000e+00  1.1327637468931400e-02 2.8144189612579650e-02 0.0000000000000000e+00  1.1578718830946388e-02 2.7038808583663528e-02 0.0000000000000000e+00  1.1750879270001601e-02 2.5973411545884013e-02 0.0000000000000000e+00  1.1863588369784257e-02 2.4917183873173473e-02 0.0000000000000000e+00  1.1954828912142498e-02 2.3841467732764358e-02 0.0000000000000000e+00  1.1975595378294231e-02 2.2817948335822864e-02 0.0000000000000000e+00  1.1963141804026030e-02 2.1796208215905409e-02 0.0000000000000000e+00  1.1914191303104700e-02 2.0775965974978505e-02 0.0000000000000000e+00  1.1797672241511676e-02 1.9797906373310161e-02 0.0000000000000000e+00  1.1641859443595642e-02 1.8851219268760485e-02 0.0000000000000000e+00  1.1467981633371940e-02 1.7922973663713714e-02 0.0000000000000000e+00  1.1249695112388120e-02 1.7032325903075157e-02 0.0000000000000000e+00  1.0965863617658948e-02 1.6191068003696137e-02 0.0000000000000000e+00  1.0689424279714468e-02 1.5344168347387114e-02 0.0000000000000000e+00  1.0369507069316053e-02 1.4553365374870526e-02 0.0000000000000000e+00  1.0016737255916881e-02 1.3782605456767814e-02 0.0000000000000000e+00  9.6383435005386008e-03 1.3063026724364360e-02 0.0000000000000000e+00  9.2208139413313336e-03 1.2401836345800967e-02 0.0000000000000000e+00  8.8045347356400013e-03 1.1748191652567817e-02 0.0000000000000000e+00  8.3566945231194328e-03 1.1158581670251489e-02 0.0000000000000000e+00  7.8876958338680858e-03 1.0560394243848638e-02 0.0000000000000000e+00  7.3968799522315838e-03 1.0048561313473491e-02 0.0000000000000000e+00  6.8993408632890968e-03 9.5356520377168699e-03 0.0000000000000000e+00  6.3834694079642667e-03 9.0871534949932657e-03 0.0000000000000000e+00  5.8430712362634732e-03 8.6817307202463802e-03 0.0000000000000000e+00  5.2972337068878618e-03 8.3174201520627815e-03 0.0000000000000000e+00  4.7606509631579101e-03 7.9399645968989147e-03 0.0000000000000000e+00  4.1913270149811065e-03 7.6583113718299810e-03 0.0000000000000000e+00  3.6212168223773477e-03 7.4006934761447797e-03 0.0000000000000000e+00  3.0474667468692609e-03 7.1766691577665534e-03 0.0000000000000000e+00  2.4561797613402696e-03 7.0036528810735734e-03 0.0000000000000000e+00  1.8783426649139176e-03 6.8822582803722511e-03 0.0000000000000000e+00  1.2840247962617771e-03 6.7901166787768304e-03 0.0000000000000000e+00  6.8965413661101389e-04 6.7158803915219542e-03 0.0000000000000000e+00  9.5824125382035303e-05 6.6924245140446920e-03 0.0000000000000000e+00  -4.9895496761819826e-04 6.7258778892077377e-03 0.0000000000000000e+00  -1.0861871130574024e-03 6.7700898262628238e-03 0.0000000000000000e+00  -1.6876232154342875e-03 6.8329417192543396e-03 0.0000000000000000e+00  -2.2771881356988713e-03 6.9592205570369707e-03 0.0000000000000000e+00  -2.8649152740186866e-03 7.1359481236092041e-03 0.0000000000000000e+00  -3.4369009746009699e-03 7.3438476686801873e-03 0.0000000000000000e+00  -4.0059392905976180e-03 7.6149747090942998e-03 0.0000000000000000e+00  -4.5734382892934555e-03 7.8953134754689083e-03 0.0000000000000000e+00  -5.1268558194111948e-03 8.2227249583602426e-03 0.0000000000000000e+00  -5.6834751403192860e-03 8.5652890278225396e-03 0.0000000000000000e+00  -6.2053489532491310e-03 9.0014332743847958e-03 0.0000000000000000e+00  -6.7415363523490208e-03 9.4334576019651974e-03 0.0000000000000000e+00  -7.2407745458225705e-03 9.9270883274051088e-03 0.0000000000000000e+00  -7.7342128211972446e-03 1.0438617252693363e-02 0.0000000000000000e+00  -8.2101966437327888e-03 1.0991464593757643e-02 0.0000000000000000e+00  -8.6688193679814920e-03 1.1580909616863741e-02 0.0000000000000000e+00  -9.1179986223708324e-03 1.2198433665993097e-02 0.0000000000000000e+00  -9.5071475734802673e-03 1.2903536874883990e-02 0.0000000000000000e+00  -9.9169672758710782e-03 1.3603636815931242e-02 0.0000000000000000e+00  -1.0263037959355579e-02 1.4376620547784474e-02 0.0000000000000000e+00  -1.0585114403637193e-02 1.5173972574662686e-02 0.0000000000000000e+00  -1.0885769177157964e-02 1.5989968554022432e-02 0.0000000000000000e+00  -1.1175062071705296e-02 1.6805350815704567e-02 0.0000000000000000e+00  -1.1408624609008076e-02 1.7704862286843277e-02 0.0000000000000000e+00  -1.1590881247532278e-02 1.8621920900691081e-02 0.0000000000000000e+00  -1.1787656105985771e-02 1.9560723206484863e-02 0.0000000000000000e+00  -1.1865898386670808e-02 2.0547074811258496e-02 0.0000000000000000e+00  -1.1961671350465362e-02 2.1532872992697821e-02 0.0000000000000000e+00  -1.2001072347817320e-02 2.2578277422141278e-02 0.0000000000000000e+00  -1.1979094550258317e-02 2.3614677128230996e-02 0.0000000000000000e+00  -1.1912754915849323e-02 2.4670899177723124e-02 0.0000000000000000e+00  -1.1811210049412303e-02 2.5753811970667999e-02 0.0000000000000000e+00  -1.1648792881609029e-02 2.6799094315255102e-02 0.0000000000000000e+00  -1.1409313023370145e-02 2.7928782239937548e-02 0.0000000000000000e+00  -1.1149939842749378e-02 2.8983770534202421e-02 0.0000000000000000e+00  -1.0831821491419804e-02 3.0106147776392759e-02 0.0000000000000000e+00  -1.0441231573821728e-02 3.1179976690429396e-02 0.0000000000000000e+00  -1.0000756085332666e-02 3.2253886879912499e-02 0.0000000000000000e+00  -9.4974876985353552e-03 3.3312352954110572e-02 0.0000000000000000e+00  -8.9757103961669756e-03 3.4373361991087689e-02 0.0000000000000000e+00  -8.3731162501310703e-03 3.5374639670699370e-02 0.0000000000000000e+00  -7.7082291668903302e-03 3.6384177282578249e-02 0.0000000000000000e+00  -6.9913694917465687e-03 3.7322099606428585e-02 0.0000000000000000e+00  -6.2414201616602634e-03 3.8264400982693632e-02 0.0000000000000000e+00  -5.4224162565758129e-03 3.9158683770422378e-02 0.0000000000000000e+00  -4.5697404392926622e-03 3.9975059963528362e-02 0.0000000000000000e+00  -3.6609280645871116e-03 4.0786907943445055e-02 0.0000000000000000e+00  -2.7017363904441685e-03 4.1492195731404884e-02 0.0000000000000000e+00  -1.7420133858010809e-03 4.2151591734114785e-02 0.0000000000000000e+00  -9.1304331870535648e-04 4.3898215691940516e-02 0.0000000000000000e+00  -1.1746090362151698e-03 4.4951658944057164e-02 0.0000000000000000e+00  -1.4111460462151752e-03 4.6156784763565273e-02 0.0000000000000000e+00  -1.6625995022200067e-03 4.7327700357399645e-02 0.0000000000000000e+00  -1.8995506540014633e-03 4.8651459173545963e-02 0.0000000000000000e+00  -2.2728713354378447e-03 4.9962432550538012e-02 0.0000000000000000e+00  -2.4875053257389867e-03 5.1366066218611894e-02 0.0000000000000000e+00  -2.8571653192414189e-03 5.2859950163450721e-02 0.0000000000000000e+00  -3.3089075152109644e-03 5.4362694459398626e-02 0.0000000000000000e+00  -3.6352735061384155e-03 5.6012274160544336e-02 0.0000000000000000e+00  -3.9607637667000029e-03 5.7750353499497170e-02 0.0000000000000000e+00  -4.3656321300261586e-03 5.9530336699921194e-02 0.0000000000000000e+00  -4.8053637486810434e-03 6.1490134648599516e-02 0.0000000000000000e+00  -5.3499863375312496e-03 6.3436942536266319e-02 0.0000000000000000e+00  -5.7754753938898933e-03 6.5600495701278030e-02 0.0000000000000000e+00  -6.2878422991978931e-03 6.7835191218205998e-02 0.0000000000000000e+00  -6.9376864487278493e-03 7.0167045781316648e-02 0.0000000000000000e+00  -7.4716149518247689e-03 7.2683003333728707e-02 0.0000000000000000e+00  -7.9970375226499166e-03 7.5376759621780753e-02 0.0000000000000000e+00  -8.6541755653537014e-03 7.8114904596186543e-02 0.0000000000000000e+00  -9.3222976991072203e-03 8.1103155310521230e-02 0.0000000000000000e+00  -1.0086132176573347e-02 8.4290801036664600e-02 0.0000000000000000e+00  -1.0973769001166584e-02 8.7563452302899775e-02 0.0000000000000000e+00  -1.1765266962959663e-02 9.1042014963958307e-02 0.0000000000000000e+00  -1.2494962010998235e-02 9.4785243615899017e-02 0.0000000000000000e+00  -1.3456025721970105e-02 9.8638228139228568e-02 0.0000000000000000e+00  -1.4319836267188048e-02 1.0282698130144173e-01 0.0000000000000000e+00  -1.5246999777588050e-02 1.0711587042269888e-01 0.0000000000000000e+00  -1.6136392279655954e-02 1.1150382398218227e-01 0.0000000000000000e+00  -1.7014464170745838e-02 1.1629722730518426e-01 0.0000000000000000e+00  -1.7779871139038689e-02 1.2109385816516262e-01 0.0000000000000000e+00  -1.8571241790065678e-02 1.2590384952777248e-01 0.0000000000000000e+00  -1.8590947305055373e-02 1.3101122411218524e-01 0.0000000000000000e+00  -1.8618768045130067e-02 1.3580244141797321e-01 0.0000000000000000e+00  -1.7843813479326492e-02 1.4080564722310668e-01 0.0000000000000000e+00  -1.6642799002298602e-02 1.4511992519797767e-01 0.0000000000000000e+00  -1.4024488492168970e-02 1.4913811797861706e-01 0.0000000000000000e+00  -1.0529328100693878e-02 1.5223621743677865e-01 0.0000000000000000e+00  -5.2777302980115048e-03 1.5440815471882940e-01 0.0000000000000000e+00  1.7549560955074960e-03 1.5490114131729216e-01 0.0000000000000000e+00  1.1373899508727735e-02 1.5332070538425888e-01 0.0000000000000000e+00  2.3946285573405428e-02 1.4956617574862249e-01 0.0000000000000000e+00  3.8564259515034241e-02 1.4223057572732672e-01 0.0000000000000000e+00  5.5626657565864428e-02 1.3094055849225095e-01 0.0000000000000000e+00  7.4430982456348910e-02 1.1551202336916389e-01 0.0000000000000000e+00  9.0272396416280209e-02 9.3730774627541508e-02 0.0000000000000000e+00  9.5957130565327703e-02 7.0449344219681992e-02 0.0000000000000000e+00  8.2074873997457082e-02 4.3266133424858522e-02 0.0000000000000000e+00  4.0152659131284255e-02 2.3189605703582479e-02 0.0000000000000000e+00  -2.7027512444954525e-02 1.6017215805195370e-02 0.0000000000000000e+00  -8.2011178472255017e-02 2.8128884028333006e-02 0.0000000000000000e+00  -1.0239477353848132e-01 6.2773590661828263e-02 0.0000000000000000e+00  -9.1056915892396215e-02 9.4767977892435448e-02 0.0000000000000000e+00  -7.1415404941480326e-02 1.1834861951428681e-01 0.0000000000000000e+00  -5.1302488206466122e-02 1.3483918859389682e-01 0.0000000000000000e+00  -3.5008245684438249e-02 1.4632475229284772e-01 0.0000000000000000e+00  -2.1316244528961536e-02 1.5297820050490984e-01 0.0000000000000000e+00  -1.0535192424259444e-02 1.5625694993539671e-01 0.0000000000000000e+00  -2.1437764074570221e-03 1.5742118497004531e-01 0.0000000000000000e+00  4.0859603337839627e-03 1.5637916955163433e-01 0.0000000000000000e+00  9.0921359983190137e-03 1.5414396654214141e-01 0.0000000000000000e+00  1.2454160745894354e-02 1.5086597249034672e-01 0.0000000000000000e+00  1.4725047363323073e-02 1.4691453493195100e-01 0.0000000000000000e+00  1.6214486296404353e-02 1.4239871923617317e-01 0.0000000000000000e+00  1.7118593938838238e-02 1.3759677266987791e-01 0.0000000000000000e+00  1.7428411831180927e-02 1.3281772008884843e-01 0.0000000000000000e+00  1.7305907660748996e-02 1.2769787677017039e-01 0.0000000000000000e+00  1.6926363950749857e-02 1.2297031399718940e-01 0.0000000000000000e+00  1.6321379764367313e-02 1.1789601155179071e-01 0.0000000000000000e+00  1.5486174256115743e-02 1.1337711204112276e-01 0.0000000000000000e+00  1.4616851258531021e-02 1.0883073923250228e-01 0.0000000000000000e+00  1.3883754048597846e-02 1.0458580782136404e-01 0.0000000000000000e+00  1.3185276769660246e-02 1.0030753517244745e-01 0.0000000000000000e+00  1.2353484778475071e-02 9.6370419354631850e-02 0.0000000000000000e+00  1.1556667767470828e-02 9.2695666362714826e-02 0.0000000000000000e+00  1.0793039852159837e-02 8.9054767947776239e-02 0.0000000000000000e+00  9.9054022629941046e-03 8.5754896386637205e-02 0.0000000000000000e+00  9.3494970725879929e-03 8.2520743691828310e-02 0.0000000000000000e+00  8.7131770071917445e-03 7.9530716468022913e-02 0.0000000000000000e+00  8.0267114867214884e-03 7.6691944939367221e-02 0.0000000000000000e+00  7.4475595359846016e-03 7.3948613635056767e-02 0.0000000000000000e+00  6.8946900818517886e-03 7.1454844632232908e-02 0.0000000000000000e+00  6.3489724657059378e-03 6.8957888056978833e-02 0.0000000000000000e+00  5.7715248513043743e-03 6.6742304965239141e-02 0.0000000000000000e+00  5.3520594994087810e-03 6.4511973719387244e-02 0.0000000000000000e+00  4.9090619152283976e-03 6.2499920903793624e-02 0.0000000000000000e+00  4.4059745527144471e-03 6.0522401866504531e-02 0.0000000000000000e+00  3.9931005332770166e-03 5.8704928228973642e-02 0.0000000000000000e+00  3.6363819378707413e-03 5.6905594993855474e-02 0.0000000000000000e+00  3.3203029771406182e-03 5.5276133207072364e-02 0.0000000000000000e+00  2.9965412313303508e-03 5.3637927671681643e-02 0.0000000000000000e+00  2.6367509337648061e-03 5.2158992468315235e-02 0.0000000000000000e+00  2.3191607048130914e-03 5.0692014811414332e-02 0.0000000000000000e+00  2.0588875883430797e-03 4.9324165907687172e-02 0.0000000000000000e+00  1.7213272281676384e-03 4.8061572641813509e-02 0.0000000000000000e+00  1.4790902684083606e-03 4.6775731733425523e-02 0.0000000000000000e+00  1.2263331404956247e-03 4.5600834791188066e-02 0.0000000000000000e+00  9.3334096245860105e-04 4.4483085733081830e-02 0.0000000000000000e+00  7.2201567331060910e-04 4.3391721095326900e-02 0.0000000000000000e+00  1.5754803752468845e-03 4.1739155894542454e-02 0.0000000000000000e+00  2.5294718881276337e-03 4.1072370177238936e-02 0.0000000000000000e+00  3.4533588980618958e-03 4.0372098493582947e-02 0.0000000000000000e+00  4.3334564117861281e-03 3.9579330384670763e-02 0.0000000000000000e+00  5.1804176783494041e-03 3.8778069014476661e-02 0.0000000000000000e+00  5.9858081667583593e-03 3.7900324469996235e-02 0.0000000000000000e+00  6.7128305965057072e-03 3.6995327183483279e-02 0.0000000000000000e+00  7.4389825158669440e-03 3.6056868588061168e-02 0.0000000000000000e+00  8.0965916837936695e-03 3.5096500112589309e-02 0.0000000000000000e+00  8.6756479983474809e-03 3.4101401428991832e-02 0.0000000000000000e+00  9.2208685235547604e-03 3.3084298186913191e-02 0.0000000000000000e+00  9.6985531116654915e-03 3.2024677331724309e-02 0.0000000000000000e+00  1.0138909196007823e-02 3.0995344174895832e-02 0.0000000000000000e+00  1.0533381286662560e-02 2.9895784441230533e-02 0.0000000000000000e+00  1.0850491679001690e-02 2.8846487709930899e-02 0.0000000000000000e+00  1.1119050508605221e-02 2.7775674149333237e-02 0.0000000000000000e+00  1.1352343237473212e-02 2.6701616893721122e-02 0.0000000000000000e+00  1.1518022579230715e-02 2.5633878628784204e-02 0.0000000000000000e+00  1.1619685118152976e-02 2.4607922414305237e-02 0.0000000000000000e+00  1.1695552043604595e-02 2.3542471591170854e-02 0.0000000000000000e+00  1.1709483346177166e-02 2.2544708106070226e-02 0.0000000000000000e+00  1.1688000314585690e-02 2.1540117493387304e-02 0.0000000000000000e+00  1.1635778608054708e-02 2.0533927844499780e-02 0.0000000000000000e+00  1.1510258027782681e-02 1.9578766718074559e-02 0.0000000000000000e+00  1.1354443155452910e-02 1.8640333839776133e-02 0.0000000000000000e+00  1.1172025773000423e-02 1.7743319769378391e-02 0.0000000000000000e+00  1.0956698654072294e-02 1.6862836503513799e-02 0.0000000000000000e+00  1.0670325890201768e-02 1.6039727136522762e-02 0.0000000000000000e+00  1.0387785162765263e-02 1.5215892316227225e-02 0.0000000000000000e+00  1.0072536277720251e-02 1.4436526217322325e-02 0.0000000000000000e+00  9.7178911300440530e-03 1.3683698229857481e-02 0.0000000000000000e+00  9.3455171812548178e-03 1.2977102105983076e-02 0.0000000000000000e+00  8.9293785380828699e-03 1.2335016406357781e-02 0.0000000000000000e+00  8.5153681058761487e-03 1.1695255572414631e-02 0.0000000000000000e+00  8.0694330380270251e-03 1.1117630596040708e-02 0.0000000000000000e+00  7.6065423534589314e-03 1.0532503359729403e-02 0.0000000000000000e+00  7.1215198878699891e-03 1.0038035238274757e-02 0.0000000000000000e+00  6.6264296679156825e-03 9.5386562340181846e-03 0.0000000000000000e+00  6.1178271630898083e-03 9.1024544351799644e-03 0.0000000000000000e+00  5.5862956075917554e-03 8.7097712378415848e-03 0.0000000000000000e+00  5.0428567888459452e-03 8.3588639317093878e-03 0.0000000000000000e+00  4.5135155964711442e-03 7.9954758773516689e-03 0.0000000000000000e+00  3.9510402385265486e-03 7.7227408819553730e-03 0.0000000000000000e+00  3.3912204712776848e-03 7.4765175029307416e-03 0.0000000000000000e+00  2.8233148052862231e-03 7.2644681167553264e-03 0.0000000000000000e+00  2.2411028180717354e-03 7.1001564577300577e-03 0.0000000000000000e+00  1.6739287676287473e-03 6.9922098194769204e-03 0.0000000000000000e+00  1.0869115696418618e-03 6.9049173912421203e-03 0.0000000000000000e+00  5.0127446446222336e-04 6.8412527696977221e-03 0.0000000000000000e+00  -8.0337619948183935e-05 6.8309523918826231e-03 0.0000000000000000e+00  -6.6587208572953043e-04 6.8712220210792024e-03 0.0000000000000000e+00  -1.2448545611474415e-03 6.9247704867008899e-03 0.0000000000000000e+00  -1.8342751938365213e-03 6.9962717458710967e-03 0.0000000000000000e+00  -2.4110945404240457e-03 7.1320640301010367e-03 0.0000000000000000e+00  -2.9886634210570724e-03 7.3155145637700267e-03 0.0000000000000000e+00  -3.5461888424952815e-03 7.5313943762290725e-03 0.0000000000000000e+00  -4.1042576675772062e-03 7.8096531419928365e-03 0.0000000000000000e+00  -4.6597728143395545e-03 8.0948028071835213e-03 0.0000000000000000e+00  -5.1969577744734553e-03 8.4307682265900106e-03 0.0000000000000000e+00  -5.7417271812233144e-03 8.7815913056096696e-03 0.0000000000000000e+00  -6.2476056178293613e-03 9.2216438509474218e-03 0.0000000000000000e+00  -6.7695208112530251e-03 9.6570199467143538e-03 0.0000000000000000e+00  -7.2517309672812573e-03 1.0155790969762884e-02 0.0000000000000000e+00  -7.7311361299972486e-03 1.0669908870378728e-02 0.0000000000000000e+00  -8.1891769738426014e-03 1.1228527890849953e-02 0.0000000000000000e+00  -8.6329280135540205e-03 1.1820654277507746e-02 0.0000000000000000e+00  -9.0601252775407044e-03 1.2440575855372218e-02 0.0000000000000000e+00  -9.4313783065369961e-03 1.3145733009011366e-02 0.0000000000000000e+00  -9.8208350160567982e-03 1.3843719059391848e-02 0.0000000000000000e+00  -1.0144661797938553e-02 1.4614021109237893e-02 0.0000000000000000e+00  -1.0453444061093648e-02 1.5408809606437073e-02 0.0000000000000000e+00  -1.0734847194449369e-02 1.6226563490383192e-02 0.0000000000000000e+00  -1.1003773202674406e-02 1.7028819834392757e-02 0.0000000000000000e+00  -1.1209922555091994e-02 1.7929270307887966e-02 0.0000000000000000e+00  -1.1379613916489575e-02 1.8831085230720225e-02 0.0000000000000000e+00  -1.1547205619070234e-02 1.9768665406546516e-02 0.0000000000000000e+00  -1.1601818517315052