<?xml version="1.0"?>
<VTKFile type="UnstructuredGrid"  version="0.1"  >
<UnstructuredGrid>
<Piece  NumberOfPoints="16275" NumberOfCells="32468">
<Points>
<DataArray  type="Float64"  NumberOfComponents="3"  format="ascii">-0.5 0.5 0  0.5 0.5 0  0.5 -0.5 0  -0.5 -0.5 0  -1 1 0  1 1 0  1 -1 0  -1 -1 0  -0.4900000000000277 0.5 0  -0.4800000000000555 0.5 0  -0.4700000000000832 0.5 0  -0.4600000000001109 0.5 0  -0.4500000000001387 0.5 0  -0.4400000000001664 0.5 0  -0.4300000000001942 0.5 0  -0.4200000000002219 0.5 0  -0.4100000000002497 0.5 0  -0.4000000000002774 0.5 0  -0.3900000000003052 0.5 0  -0.3800000000003328 0.5 0  -0.3700000000003606 0.5 0  -0.3600000000003883 0.5 0  -0.3500000000004161 0.5 0  -0.3400000000004438 0.5 0  -0.3300000000004716 0.5 0  -0.3200000000004993 0.5 0  -0.3100000000005271 0.5 0  -0.3000000000005548 0.5 0  -0.2900000000005825 0.5 0  -0.2800000000006103 0.5 0  -0.2700000000006381 0.5 0  -0.2600000000006658 0.5 0  -0.2500000000006935 0.5 0  -0.2400000000007212 0.5 0  -0.230000000000749 0.5 0  -0.2200000000007767 0.5 0  -0.2100000000008044 0.5 0  -0.2000000000008322 0.5 0  -0.19000000000086 0.5 0  -0.1800000000008877 0.5 0  -0.1700000000009154 0.5 0  -0.1600000000009431 0.5 0  -0.1500000000009709 0.5 0  -0.1400000000009986 0.5 0  -0.1300000000010264 0.5 0  -0.1200000000010541 0.5 0  -0.1100000000010818 0.5 0  -0.1000000000011096 0.5 0  -0.09000000000113734 0.5 0  -0.08000000000116503 0.5 0  -0.07000000000119283 0.5 0  -0.06000000000122058 0.5 0  -0.05000000000124827 0.5 0  -0.04000000000127607 0.5 0  -0.03000000000130376 0.5 0  -0.02000000000133151 0.5 0  -0.01000000000135925 0.5 0  -1.376121439022882e-12 0.5 0  0.009999999998640763 0.5 0  0.01999999999866864 0.5 0  0.02999999999869629 0.5 0  0.03999999999872406 0.5 0  0.04999999999875182 0.5 0  0.05999999999877947 0.5 0  0.06999999999880724 0.5 0  0.079999999998835 0.5 0  0.08999999999886266 0.5 0  0.09999999999889042 0.5 0  0.1099999999989182 0.5 0  0.1199999999989459 0.5 0  0.1299999999989737 0.5 0  0.1399999999990014 0.5 0  0.1499999999990291 0.5 0  0.1599999999990568 0.5 0  0.1699999999990847 0.5 0  0.1799999999991124 0.5 0  0.1899999999991401 0.5 0  0.1999999999991678 0.5 0  0.2099999999991955 0.5 0  0.2199999999992234 0.5 0  0.2299999999992511 0.5 0  0.2399999999992788 0.5 0  0.2499999999993066 0.5 0  0.2599999999993342 0.5 0  0.269999999999362 0.5 0  0.2799999999993897 0.5 0  0.2899999999994175 0.5 0  0.2999999999994452 0.5 0  0.3099999999994729 0.5 0  0.3199999999995007 0.5 0  0.3299999999995284 0.5 0  0.3399999999995562 0.5 0  0.3499999999995839 0.5 0  0.3599999999996116 0.5 0  0.3699999999996393 0.5 0  0.379999999999667 0.5 0  0.3899999999996949 0.5 0  0.3999999999997226 0.5 0  0.4099999999997503 0.5 0  0.419999999999778 0.5 0  0.4299999999998058 0.5 0  0.4399999999998336 0.5 0  0.4499999999998613 0.5 0  0.4599999999998891 0.5 0  0.4699999999999167 0.5 0  0.4799999999999445 0.5 0  0.4899999999999722 0.5 0  0.5 0.4900000000000277 0  0.5 0.4800000000000555 0  0.5 0.4700000000000832 0  0.5 0.4600000000001109 0  0.5 0.4500000000001387 0  0.5 0.4400000000001664 0  0.5 0.4300000000001942 0  0.5 0.4200000000002219 0  0.5 0.4100000000002497 0  0.5 0.4000000000002774 0  0.5 0.3900000000003052 0  0.5 0.3800000000003328 0  0.5 0.3700000000003606 0  0.5 0.3600000000003883 0  0.5 0.3500000000004161 0  0.5 0.3400000000004438 0  0.5 0.3300000000004716 0  0.5 0.3200000000004993 0  0.5 0.3100000000005271 0  0.5 0.3000000000005548 0  0.5 0.2900000000005825 0  0.5 0.2800000000006103 0  0.5 0.2700000000006381 0  0.5 0.2600000000006658 0  0.5 0.2500000000006935 0  0.5 0.2400000000007212 0  0.5 0.230000000000749 0  0.5 0.2200000000007767 0  0.5 0.2100000000008044 0  0.5 0.2000000000008322 0  0.5 0.19000000000086 0  0.5 0.1800000000008877 0  0.5 0.1700000000009154 0  0.5 0.1600000000009431 0  0.5 0.1500000000009709 0  0.5 0.1400000000009986 0  0.5 0.1300000000010264 0  0.5 0.1200000000010541 0  0.5 0.1100000000010818 0  0.5 0.1000000000011096 0  0.5 0.09000000000113734 0  0.5 0.08000000000116503 0  0.5 0.07000000000119283 0  0.5 0.06000000000122058 0  0.5 0.05000000000124827 0  0.5 0.04000000000127607 0  0.5 0.03000000000130376 0  0.5 0.02000000000133151 0  0.5 0.01000000000135925 0  0.5 1.376121439022882e-12 0  0.5 -0.009999999998640763 0  0.5 -0.01999999999866864 0  0.5 -0.02999999999869629 0  0.5 -0.03999999999872406 0  0.5 -0.04999999999875182 0  0.5 -0.05999999999877947 0  0.5 -0.06999999999880724 0  0.5 -0.079999999998835 0  0.5 -0.08999999999886266 0  0.5 -0.09999999999889042 0  0.5 -0.1099999999989182 0  0.5 -0.1199999999989459 0  0.5 -0.1299999999989737 0  0.5 -0.1399999999990014 0  0.5 -0.1499999999990291 0  0.5 -0.1599999999990568 0  0.5 -0.1699999999990847 0  0.5 -0.1799999999991124 0  0.5 -0.1899999999991401 0  0.5 -0.1999999999991678 0  0.5 -0.2099999999991955 0  0.5 -0.2199999999992234 0  0.5 -0.2299999999992511 0  0.5 -0.2399999999992788 0  0.5 -0.2499999999993066 0  0.5 -0.2599999999993342 0  0.5 -0.269999999999362 0  0.5 -0.2799999999993897 0  0.5 -0.2899999999994175 0  0.5 -0.2999999999994452 0  0.5 -0.3099999999994729 0  0.5 -0.3199999999995007 0  0.5 -0.3299999999995284 0  0.5 -0.3399999999995562 0  0.5 -0.3499999999995839 0  0.5 -0.3599999999996116 0  0.5 -0.3699999999996393 0  0.5 -0.379999999999667 0  0.5 -0.3899999999996949 0  0.5 -0.3999999999997226 0  0.5 -0.4099999999997503 0  0.5 -0.419999999999778 0  0.5 -0.4299999999998058 0  0.5 -0.4399999999998336 0  0.5 -0.4499999999998613 0  0.5 -0.4599999999998891 0  0.5 -0.4699999999999167 0  0.5 -0.4799999999999445 0  0.5 -0.4899999999999722 0  0.4900000000000277 -0.5 0  0.4800000000000555 -0.5 0  0.4700000000000832 -0.5 0  0.4600000000001109 -0.5 0  0.4500000000001387 -0.5 0  0.4400000000001664 -0.5 0  0.4300000000001942 -0.5 0  0.4200000000002219 -0.5 0  0.4100000000002497 -0.5 0  0.4000000000002774 -0.5 0  0.3900000000003052 -0.5 0  0.3800000000003328 -0.5 0  0.3700000000003606 -0.5 0  0.3600000000003883 -0.5 0  0.3500000000004161 -0.5 0  0.3400000000004438 -0.5 0  0.3300000000004716 -0.5 0  0.3200000000004993 -0.5 0  0.3100000000005271 -0.5 0  0.3000000000005548 -0.5 0  0.2900000000005825 -0.5 0  0.2800000000006103 -0.5 0  0.2700000000006381 -0.5 0  0.2600000000006658 -0.5 0  0.2500000000006935 -0.5 0  0.2400000000007212 -0.5 0  0.230000000000749 -0.5 0  0.2200000000007767 -0.5 0  0.2100000000008044 -0.5 0  0.2000000000008322 -0.5 0  0.19000000000086 -0.5 0  0.1800000000008877 -0.5 0  0.1700000000009154 -0.5 0  0.1600000000009431 -0.5 0  0.1500000000009709 -0.5 0  0.1400000000009986 -0.5 0  0.1300000000010264 -0.5 0  0.1200000000010541 -0.5 0  0.1100000000010818 -0.5 0  0.1000000000011096 -0.5 0  0.09000000000113734 -0.5 0  0.08000000000116503 -0.5 0  0.07000000000119283 -0.5 0  0.06000000000122058 -0.5 0  0.05000000000124827 -0.5 0  0.04000000000127607 -0.5 0  0.03000000000130376 -0.5 0  0.02000000000133151 -0.5 0  0.01000000000135925 -0.5 0  1.376121439022882e-12 -0.5 0  -0.009999999998640763 -0.5 0  -0.01999999999866864 -0.5 0  -0.02999999999869629 -0.5 0  -0.03999999999872406 -0.5 0  -0.04999999999875182 -0.5 0  -0.05999999999877947 -0.5 0  -0.06999999999880724 -0.5 0  -0.079999999998835 -0.5 0  -0.08999999999886266 -0.5 0  -0.09999999999889042 -0.5 0  -0.1099999999989182 -0.5 0  -0.1199999999989459 -0.5 0  -0.1299999999989737 -0.5 0  -0.1399999999990014 -0.5 0  -0.1499999999990291 -0.5 0  -0.1599999999990568 -0.5 0  -0.1699999999990847 -0.5 0  -0.1799999999991124 -0.5 0  -0.1899999999991401 -0.5 0  -0.1999999999991678 -0.5 0  -0.2099999999991955 -0.5 0  -0.2199999999992234 -0.5 0  -0.2299999999992511 -0.5 0  -0.2399999999992788 -0.5 0  -0.2499999999993066 -0.5 0  -0.2599999999993342 -0.5 0  -0.269999999999362 -0.5 0  -0.2799999999993897 -0.5 0  -0.2899999999994175 -0.5 0  -0.2999999999994452 -0.5 0  -0.3099999999994729 -0.5 0  -0.3199999999995007 -0.5 0  -0.3299999999995284 -0.5 0  -0.3399999999995562 -0.5 0  -0.3499999999995839 -0.5 0  -0.3599999999996116 -0.5 0  -0.3699999999996393 -0.5 0  -0.379999999999667 -0.5 0  -0.3899999999996949 -0.5 0  -0.3999999999997226 -0.5 0  -0.4099999999997503 -0.5 0  -0.419999999999778 -0.5 0  -0.4299999999998058 -0.5 0  -0.4399999999998336 -0.5 0  -0.4499999999998613 -0.5 0  -0.4599999999998891 -0.5 0  -0.4699999999999167 -0.5 0  -0.4799999999999445 -0.5 0  -0.4899999999999722 -0.5 0  -0.5 -0.4900000000000277 0  -0.5 -0.4800000000000555 0  -0.5 -0.4700000000000832 0  -0.5 -0.4600000000001109 0  -0.5 -0.4500000000001387 0  -0.5 -0.4400000000001664 0  -0.5 -0.4300000000001942 0  -0.5 -0.4200000000002219 0  -0.5 -0.4100000000002497 0  -0.5 -0.4000000000002774 0  -0.5 -0.3900000000003052 0  -0.5 -0.3800000000003328 0  -0.5 -0.3700000000003606 0  -0.5 -0.3600000000003883 0  -0.5 -0.3500000000004161 0  -0.5 -0.3400000000004438 0  -0.5 -0.3300000000004716 0  -0.5 -0.3200000000004993 0  -0.5 -0.3100000000005271 0  -0.5 -0.3000000000005548 0  -0.5 -0.2900000000005825 0  -0.5 -0.2800000000006103 0  -0.5 -0.2700000000006381 0  -0.5 -0.2600000000006658 0  -0.5 -0.2500000000006935 0  -0.5 -0.2400000000007212 0  -0.5 -0.230000000000749 0  -0.5 -0.2200000000007767 0  -0.5 -0.2100000000008044 0  -0.5 -0.2000000000008322 0  -0.5 -0.19000000000086 0  -0.5 -0.1800000000008877 0  -0.5 -0.1700000000009154 0  -0.5 -0.1600000000009431 0  -0.5 -0.1500000000009709 0  -0.5 -0.1400000000009986 0  -0.5 -0.1300000000010264 0  -0.5 -0.1200000000010541 0  -0.5 -0.1100000000010818 0  -0.5 -0.1000000000011096 0  -0.5 -0.09000000000113734 0  -0.5 -0.08000000000116503 0  -0.5 -0.07000000000119283 0  -0.5 -0.06000000000122058 0  -0.5 -0.05000000000124827 0  -0.5 -0.04000000000127607 0  -0.5 -0.03000000000130376 0  -0.5 -0.02000000000133151 0  -0.5 -0.01000000000135925 0  -0.5 -1.376121439022882e-12 0  -0.5 0.009999999998640763 0  -0.5 0.01999999999866864 0  -0.5 0.02999999999869629 0  -0.5 0.03999999999872406 0  -0.5 0.04999999999875182 0  -0.5 0.05999999999877947 0  -0.5 0.06999999999880724 0  -0.5 0.079999999998835 0  -0.5 0.08999999999886266 0  -0.5 0.09999999999889042
[...]
<PointData  Vectors="f_27-0"> 
<DataArray  type="Float64"  Name="f_27-0"  NumberOfComponents="3" format="ascii">1.4874837273614267e-03 4.8237723365526827e-02 0.0000000000000000e+00  -2.0510207662830277e-03 4.7979376707015124e-02 0.0000000000000000e+00  -3.8286159999991490e-04 3.8175914707369522e-02 0.0000000000000000e+00  4.9425433304993265e-04 3.8083395231778394e-02 0.0000000000000000e+00  -1.6310841204873112e-03 6.4044602744850986e-03 0.0000000000000000e+00  1.6234546387524943e-03 6.3786978332773360e-03 0.0000000000000000e+00  -8.4751453766039359e-04 6.1594410235434891e-03 0.0000000000000000e+00  8.4261579023522113e-04 6.1809963584266714e-03 0.0000000000000000e+00  2.7348773355386539e-03 4.7504984331307086e-02 0.0000000000000000e+00  3.9395621437103246e-03 4.6694041985089939e-02 0.0000000000000000e+00  5.0953319108893533e-03 4.5809881612243725e-02 0.0000000000000000e+00  6.1988169932982945e-03 4.4856603730337008e-02 0.0000000000000000e+00  7.2442448917865330e-03 4.3840609117457109e-02 0.0000000000000000e+00  8.2294274749082595e-03 4.2766060327593496e-02 0.0000000000000000e+00  9.1494935315001094e-03 4.1640967945868898e-02 0.0000000000000000e+00  1.0003431735259184e-02 4.0469833019885285e-02 0.0000000000000000e+00  1.0788493833975199e-02 3.9259347878565241e-02 0.0000000000000000e+00  1.1501863765443439e-02 3.8017029026488972e-02 0.0000000000000000e+00  1.2144283945968781e-02 3.6748724623426002e-02 0.0000000000000000e+00  1.2714851202135080e-02 3.5459718110984403e-02 0.0000000000000000e+00  1.3213515750492342e-02 3.4157125038157439e-02 0.0000000000000000e+00  1.3641517221209775e-02 3.2845458103058646e-02 0.0000000000000000e+00  1.3998122272100264e-02 3.1533069151268592e-02 0.0000000000000000e+00  1.4286339229278621e-02 3.0223177999814773e-02 0.0000000000000000e+00  1.4507376235076887e-02 2.8920833442276975e-02 0.0000000000000000e+00  1.4662620729884864e-02 2.7632101453465951e-02 0.0000000000000000e+00  1.4754976105014557e-02 2.6361149231938122e-02 0.0000000000000000e+00  1.4786952776502243e-02 2.5110715315499521e-02 0.0000000000000000e+00  1.4760587507668059e-02 2.3885525607621805e-02 0.0000000000000000e+00  1.4679160644428356e-02 2.2688002466752129e-02 0.0000000000000000e+00  1.4545369713126076e-02 2.1520967447338377e-02 0.0000000000000000e+00  1.4361641228513368e-02 2.0389004317764470e-02 0.0000000000000000e+00  1.4131157444925952e-02 1.9292386999210653e-02 0.0000000000000000e+00  1.3857103593346694e-02 1.8233525279786042e-02 0.0000000000000000e+00  1.3541797036311960e-02 1.7213955016655454e-02 0.0000000000000000e+00  1.3188178615658347e-02 1.6236082153897574e-02 0.0000000000000000e+00  1.2799228123621675e-02 1.5299078301917594e-02 0.0000000000000000e+00  1.2377545813758150e-02 1.4404951789420960e-02 0.0000000000000000e+00  1.1925371467779609e-02 1.3554495350667713e-02 0.0000000000000000e+00  1.1445295900917309e-02 1.2748149093534908e-02 0.0000000000000000e+00  1.0939710901871886e-02 1.1986608036165313e-02 0.0000000000000000e+00  1.0410933578055469e-02 1.1269207946492454e-02 0.0000000000000000e+00  9.8607648580539501e-03 1.0596392386343927e-02 0.0000000000000000e+00  9.2912966524066921e-03 9.9677484638829514e-03 0.0000000000000000e+00  8.7046165357497918e-03 9.3841380466534938e-03 0.0000000000000000e+00  8.1021778437894449e-03 8.8446505110763487e-03 0.0000000000000000e+00  7.4858277191600497e-03 8.3489766307499880e-03 0.0000000000000000e+00  6.8570459595735508e-03 7.8978569422100808e-03 0.0000000000000000e+00  6.2173993736162995e-03 7.4900409376624597e-03 0.0000000000000000e+00  5.5682856669806479e-03 7.1247560623242407e-03 0.0000000000000000e+00  4.9107048184986336e-03 6.8035828523550440e-03 0.0000000000000000e+00  4.2460794642812886e-03 6.5249174769928479e-03 0.0000000000000000e+00  3.5754845108350946e-03 6.2887856449740567e-03 0.0000000000000000e+00  2.8998067459715580e-03 6.0947095378891362e-03 0.0000000000000000e+00  2.2206586356611369e-03 5.9432817654570761e-03 0.0000000000000000e+00  1.5383867535218386e-03 5.8333958100517183e-03 0.0000000000000000e+00  8.5457866700263546e-04 5.7648681431025387e-03 0.0000000000000000e+00  1.6960618753279958e-04 5.7385602623635764e-03 0.0000000000000000e+00  -5.1531450214424611e-04 5.7540100079002347e-03 0.0000000000000000e+00  -1.1991066351110318e-03 5.8103712177774835e-03 0.0000000000000000e+00  -1.8811939135819551e-03 5.9082188892536696e-03 0.0000000000000000e+00  -2.5602897561537701e-03 6.0481067285497458e-03 0.0000000000000000e+00  -3.2356702157910603e-03 6.2302486338005111e-03 0.0000000000000000e+00  -3.9060297916846845e-03 6.4542689315223948e-03 0.0000000000000000e+00  -4.5706031043889163e-03 6.7206114197373963e-03 0.0000000000000000e+00  -5.2280867919336808e-03 7.0290383067436318e-03 0.0000000000000000e+00  -5.8775707283029973e-03 7.3802216397978798e-03 0.0000000000000000e+00  -6.5177250174787973e-03 7.7738187781192375e-03 0.0000000000000000e+00  -7.1470140815516562e-03 8.2113322082001412e-03 0.0000000000000000e+00  -7.7646067494385124e-03 8.6916908160215162e-03 0.0000000000000000e+00  -8.3683547403580472e-03 9.2155813077342153e-03 0.0000000000000000e+00  -8.9571102356637011e-03 9.7832503601173702e-03 0.0000000000000000e+00  -9.5292257452081232e-03 1.0394525267710225e-02 0.0000000000000000e+00  -1.0082537421613674e-02 1.1049613322687285e-02 0.0000000000000000e+00  -1.0615896711886411e-02 1.1749040264529083e-02 0.0000000000000000e+00  -1.1126233393528280e-02 1.2492659741592044e-02 0.0000000000000000e+00  -1.1612744657853578e-02 1.3279899511685017e-02 0.0000000000000000e+00  -1.2071981761600598e-02 1.4110652842871784e-02 0.0000000000000000e+00  -1.2502422848065700e-02 1.4985202566309346e-02 0.0000000000000000e+00  -1.2901594601715244e-02 1.5901063669006680e-02 0.0000000000000000e+00  -1.3266700275192063e-02 1.6858251815566130e-02 0.0000000000000000e+00  -1.3595576584648859e-02 1.7856889919521564e-02 0.0000000000000000e+00  -1.3884823842138402e-02 1.8894795916261087e-02 0.0000000000000000e+00  -1.4132771484582524e-02 1.9970634151053032e-02 0.0000000000000000e+00  -1.4335313659246675e-02 2.1083542672405212e-02 0.0000000000000000e+00  -1.4490792649377164e-02 2.2229184277440611e-02 0.0000000000000000e+00  -1.4595943247092501e-02 2.3407408967162317e-02 0.0000000000000000e+00  -1.4647826968928412e-02 2.4614926999121295e-02 0.0000000000000000e+00  -1.4644082781643071e-02 2.5848626824753078e-02 0.0000000000000000e+00  -1.4581678928628562e-02 2.7104877942102586e-02 0.0000000000000000e+00  -1.4458757979011909e-02 2.8380477411540959e-02 0.0000000000000000e+00  -1.4271813115018135e-02 2.9671989975800696e-02 0.0000000000000000e+00  -1.4020117766505599e-02 3.0972898789743589e-02 0.0000000000000000e+00  -1.3701131973035893e-02 3.2280014759307918e-02 0.0000000000000000e+00  -1.3312929342467032e-02 3.3588780139028857e-02 0.0000000000000000e+00  -1.2854617029704916e-02 3.4892474674602728e-02 0.0000000000000000e+00  -1.2325491650834203e-02 3.6185640270130812e-02 0.0000000000000000e+00  -1.1725008701954132e-02 3.7462219665385335e-02 0.0000000000000000e+00  -1.1053387380735340e-02 3.8716614134960213e-02 0.0000000000000000e+00  -1.0309885071514594e-02 3.9943408355116568e-02 0.0000000000000000e+00  -9.4969610433453013e-03 4.1134767812009518e-02 0.0000000000000000e+00  -8.6157405847997297e-03 4.2284689256189986e-02 0.0000000000000000e+00  -7.6675482727447605e-03 4.3388050763343150e-02 0.0000000000000000e+00  -6.6570552487774035e-03 4.4436229406809601e-02 0.0000000000000000e+00  -5.5852722247498477e-03 4.5425681709879345e-02 0.0000000000000000e+00  -4.4572973364078736e-03 4.6349416249587737e-02 0.0000000000000000e+00  -3.2777334062317740e-03 4.7202169863576018e-02 0.0000000000000000e+00  -2.3582302364288043e-03 4.9260418419496452e-02 0.0000000000000000e+00  -2.6883093038934298e-03 5.0606858095502583e-02 0.0000000000000000e+00  -3.0410428140366713e-03 5.2025596434148703e-02 0.0000000000000000e+00  -3.4192350518501627e-03 5.3518696941909569e-02 0.0000000000000000e+00  -3.8236155949982922e-03 5.5093583289401699e-02 0.0000000000000000e+00  -4.2591095803292461e-03 5.6753777306409910e-02 0.0000000000000000e+00  -4.7226461094039196e-03 5.8505786288386145e-02 0.0000000000000000e+00  -5.2230844716206828e-03 6.0356687762248278e-02 0.0000000000000000e+00  -5.7616662913352592e-03 6.2311479212607213e-02 0.0000000000000000e+00  -6.3379865366235775e-03 6.4379508705788069e-02 0.0000000000000000e+00  -6.9587943507860859e-03 6.6567726370387284e-02 0.0000000000000000e+00  -7.6303670338511318e-03 6.8882693005874893e-02 0.0000000000000000e+00  -8.3565680683609228e-03 7.1335023880742435e-02 0.0000000000000000e+00  -9.1455367520838996e-03 7.3927921264907825e-02 0.0000000000000000e+00  -9.9997470228419556e-03 7.6673679009797227e-02 0.0000000000000000e+00  -1.0928580264335594e-02 7.9578752834477115e-02 0.0000000000000000e+00  -1.1943377648924685e-02 8.2643773886735869e-02 0.0000000000000000e+00  -1.3044203222627610e-02 8.5879781520539905e-02 0.0000000000000000e+00  -1.4237201059397785e-02 8.9280378066424415e-02 0.0000000000000000e+00  -1.5524553558462200e-02 9.2837320575560670e-02 0.0000000000000000e+00  -1.6886595680409126e-02 9.6542240253163866e-02 0.0000000000000000e+00  -1.8297396166779712e-02 1.0036399751794094e-01 0.0000000000000000e+00  -1.9686607396862475e-02 1.0426639312653355e-01 0.0000000000000000e+00  -2.0948421524018282e-02 1.0819551046683563e-01 0.0000000000000000e+00  -2.1892479324980379e-02 1.1207282279881368e-01 0.0000000000000000e+00  -2.2245217169785586e-02 1.1580088532038801e-01 0.0000000000000000e+00  -2.1610499619984021e-02 1.1925517799903988e-01 0.0000000000000000e+00  -1.9489657909284055e-02 1.2230892682382286e-01 0.0000000000000000e+00  -1.5259473156280869e-02 1.2482319528789501e-01 0.0000000000000000e+00  -8.3560643859464639e-03 1.2667398558720463e-01 0.0000000000000000e+00  1.6029260731314843e-03 1.2778279497102937e-01 0.0000000000000000e+00  1.4517440824800856e-02 1.2809620919650994e-01 0.0000000000000000e+00  2.9528955676434734e-02 1.2755379241106934e-01 0.0000000000000000e+00  4.5007682679682609e-02 1.2611067198834841e-01 0.0000000000000000e+00  5.8538784302225824e-02 1.2349587244361887e-01 0.0000000000000000e+00  6.7063921392000930e-02 1.1950028034865079e-01 0.0000000000000000e+00  6.7283605722430459e-02 1.1382465860397763e-01 0.0000000000000000e+00  5.5679810650989411e-02 1.0709764040489378e-01 0.0000000000000000e+00  3.1163599840126715e-02 1.0063578263479639e-01 0.0000000000000000e+00  -3.1382966960958924e-03 9.7594012384299725e-02 0.0000000000000000e+00  -3.7466179288058427e-02 1.0084011677158118e-01 0.0000000000000000e+00  -5.9332189618354916e-02 1.1166395893051005e-01 0.0000000000000000e+00  -6.3313167107822824e-02 1.2767200745017965e-01 0.0000000000000000e+00  -5.5530525212424832e-02 1.4370121110924192e-01 0.0000000000000000e+00  -4.5343610047795156e-02 1.5608772976479962e-01 0.0000000000000000e+00  -3.6378329197172946e-02 1.6454323158204565e-01 0.0000000000000000e+00  -2.8822738404352229e-02 1.6976616858362226e-01 0.0000000000000000e+00  -2.2420788851072699e-02 1.7266402445548376e-01 0.0000000000000000e+00  -1.6838470822675995e-02 1.7376446709331192e-01 0.0000000000000000e+00  -1.1965686543172566e-02 1.7345330548539925e-01 0.0000000000000000e+00  -7.7204482966579460e-03 1.7200647136837535e-01 0.0000000000000000e+00  -4.0408304391049317e-03 1.6965996680991452e-01 0.0000000000000000e+00  -8.7622215481770072e-04 1.6660373051585817e-01 0.0000000000000000e+00  1.8366932394750022e-03 1.6298003901431274e-01 0.0000000000000000e+00  4.1042522222366267e-03 1.5891836954306293e-01 0.0000000000000000e+00  5.9826245901707072e-03 1.5452923212060307e-01 0.0000000000000000e+00  7.4955013581118899e-03 1.4991631108941567e-01 0.0000000000000000e+00  8.6766893281731133e-03 1.4516636177591730e-01 0.0000000000000000e+00  9.5716809635647097e-03 1.4034154222683626e-01 0.0000000000000000e+00  1.0210156699406380e-02 1.3550718201246711e-01 0.0000000000000000e+00  1.0633988549255220e-02 1.3070224122332055e-01 0.0000000000000000e+00  1.0869073321749726e-02 1.2597278730001435e-01 0.0000000000000000e+00  1.0949465311827696e-02 1.2134666325669376e-01 0.0000000000000000e+00  1.0900003441088355e-02 1.1684665474273694e-01 0.0000000000000000e+00  1.0745593809315668e-02 1.1249048644340752e-01 0.0000000000000000e+00  1.0508538825612999e-02 1.0828659830240606e-01 0.0000000000000000e+00  1.0206940169497898e-02 1.0424918101474977e-01 0.0000000000000000e+00  9.8590128077849781e-03 1.0037008303972916e-01 0.0000000000000000e+00  9.4735719479279376e-03 9.6664014587765343e-02 0.0000000000000000e+00  9.0639748353667209e-03 9.3117878811212793e-02 0.0000000000000000e+00  8.6364054528911809e-03 8.9735269724494499e-02 0.0000000000000000e+00  8.1955708292151177e-03 8.6511553819177731e-02 0.0000000000000000e+00  7.7493568024780525e-03 8.3443206737881415e-02 0.0000000000000000e+00  7.3048779345544585e-03 8.0520272544762406e-02 0.0000000000000000e+00  6.8643121537654284e-03 7.7736467570078988e-02 0.0000000000000000e+00  6.4279117916882546e-03 7.5091061737962206e-02 0.0000000000000000e+00  6.0026599230088530e-03 7.2570427374839236e-02 0.0000000000000000e+00  5.5827639446915239e-03 7.0173787107726704e-02 0.0000000000000000e+00  5.1756187303523922e-03 6.7891418625768155e-02 0.0000000000000000e+00  4.7808486653627231e-03 6.5719488486427557e-02 0.0000000000000000e+00  4.3978657081262989e-03 6.3651658114452198e-02 0.0000000000000000e+00  4.0277324703328803e-03 6.1681271295699745e-02 0.0000000000000000e+00  3.6711955039308223e-03 5.9805112078783432e-02 0.0000000000000000e+00  3.3287993665893486e-03 5.8015235661074964e-02 0.0000000000000000e+00  2.9986989065842414e-03 5.6309882863358487e-02 0.0000000000000000e+00  2.6828770993332241e-03 5.4681896522229989e-02 0.0000000000000000e+00  2.3815642840084110e-03 5.3128982383826816e-02 0.0000000000000000e+00  2.0929677296917366e-03 5.1645832311475216e-02 0.0000000000000000e+00  1.8178247363118385e-03 5.0229852021955443e-02 0.0000000000000000e+00  1.5553122213665485e-03 4.8876387380521594e-02 0.0000000000000000e+00  1.3065868210240447e-03 4.7583241000246058e-02 0.0000000000000000e+00  1.0712776164249203e-03 4.6346144878390894e-02 0.0000000000000000e+00  8.4806402348045081e-04 4.5163293063591410e-02 0.0000000000000000e+00  6.3665546135804679e-04 4.4031095251357524e-02 0.0000000000000000e+00  4.3823522216006149e-04 4.2946893205283582e-02 0.0000000000000000e+00  2.5103962196157718e-04 4.1909232584881002e-02 0.0000000000000000e+00  7.5977308120458870e-05 4.0914884904424284e-02 0.0000000000000000e+00  -8.7099445483476416e-05 3.9962430172983641e-02 0.0000000000000000e+00  -2.3993536231327339e-04 3.9050073264159463e-02 0.0000000000000000e+00  4.6099387954613312e-04 3.7674662193786651e-02 0.0000000000000000e+00  1.2785935349732193e-03 3.7126380928759237e-02 0.0000000000000000e+00  2.0681066274901368e-03 3.6532662708631071e-02 0.0000000000000000e+00  2.8262811537868768e-03 3.5896468466994957e-02 0.0000000000000000e+00  3.5515273393871890e-03 3.5220004068311696e-02 0.0000000000000000e+00  4.2410357835206613e-03 3.4506979200360798e-02 0.0000000000000000e+00  4.8937178512586006e-03 3.3759337971971934e-02 0.0000000000000000e+00  5.5071162467283680e-03 3.2980855776304871e-02 0.0000000000000000e+00  6.0800541775836844e-03 3.2174613285502918e-02 0.0000000000000000e+00  6.6119507671320655e-03 3.1343551763522617e-02 0.0000000000000000e+00  7.1011648710830088e-03 3.0491136440460948e-02 0.0000000000000000e+00  7.5470362421045699e-03 2.9621341326506935e-02 0.0000000000000000e+00  7.9491448118316488e-03 2.8736935215613761e-02 0.0000000000000000e+00  8.3067619218913907e-03 2.7842081643467124e-02 0.0000000000000000e+00  8.6207627860967872e-03 2.6938807710672651e-02 0.0000000000000000e+00  8.8904921221029734e-03 2.6031383504304315e-02 0.0000000000000000e+00  9.1164801363468381e-03 2.5123145287829534e-02 0.0000000000000000e+00  9.2994430651934124e-03 2.4216687822617208e-02 0.0000000000000000e+00  9.4399959288321948e-03 2.3314797289273475e-02 0.0000000000000000e+00  9.5386719434806776e-03 2.2421167081955972e-02 0.0000000000000000e+00  9.5968067569877392e-03 2.1537850872119971e-02 0.0000000000000000e+00  9.6152735997489889e-03 2.0667879990239658e-02 0.0000000000000000e+00  9.5952136841851790e-03 1.9813707378616711e-02 0.0000000000000000e+00  9.5384580563815050e-03 1.8976709008010139e-02 0.0000000000000000e+00  9.4459658137493515e-03 1.8159640064321081e-02 0.0000000000000000e+00  9.3192106312477169e-03 1.7364291499780495e-02 0.0000000000000000e+00  9.1598784786188579e-03 1.6592540201947469e-02 0.0000000000000000e+00  8.9696229650382594e-03 1.5845400951361041e-02 0.0000000000000000e+00  8.7497864952923617e-03 1.5125406267583099e-02 0.0000000000000000e+00  8.5018345516860230e-03 1.4433193387181437e-02 0.0000000000000000e+00  8.2276894689893992e-03 1.3769995950424260e-02 0.0000000000000000e+00  7.9287323301612377e-03 1.3136736973235265e-02 0.0000000000000000e+00  7.6067368264451330e-03 1.2534108286653727e-02 0.0000000000000000e+00  7.2630160003857892e-03 1.1963476527248261e-02 0.0000000000000000e+00  6.8993117363350407e-03 1.1425248120144321e-02 0.0000000000000000e+00  6.5171024376749122e-03 1.0920384559504214e-02 0.0000000000000000e+00  6.1176463030570786e-03 1.0448547572480054e-02 0.0000000000000000e+00  5.7026651789562196e-03 1.0010910850546463e-02 0.0000000000000000e+00  5.2732749025794839e-03 9.6075612176711924e-03 0.0000000000000000e+00  4.8311847403841599e-03 9.2384122945897342e-03 0.0000000000000000e+00  4.3774758040749174e-03 8.9043953779270220e-03 0.0000000000000000e+00  3.9133585855789469e-03 8.6060587215091890e-03 0.0000000000000000e+00  3.4403427885160280e-03 8.3423149074099475e-03 0.0000000000000000e+00  2.9593991837488860e-03 8.1139798947737259e-03 0.0000000000000000e+00  2.4718208377934245e-03 7.9209592332036682e-03 0.0000000000000000e+00  1.9788835418859101e-03 7.7634279292523338e-03 0.0000000000000000e+00  1.4814897063926739e-03 7.6409713483206482e-03 0.0000000000000000e+00  9.8121134292636380e-04 7.5544096220434799e-03 0.0000000000000000e+00  4.7867028587914858e-04 7.5037121901180030e-03 0.0000000000000000e+00  -2.4630662154618462e-05 7.4881921983191166e-03 0.0000000000000000e+00  -5.2780171404563626e-04 7.5081554418896202e-03 0.0000000000000000e+00  -1.0298013505591161e-03 7.5640509255044865e-03 0.0000000000000000e+00  -1.5292665189746198e-03 7.6556005040394823e-03 0.0000000000000000e+00  -2.0252602055487786e-03 7.7824281519489249e-03 0.0000000000000000e+00  -2.5165479096241404e-03 7.9444751232404555e-03 0.0000000000000000e+00  -3.0022203555495992e-03 8.1419419271529635e-03 0.0000000000000000e+00  -3.4808185381323578e-03 8.3745531299505727e-03 0.0000000000000000e+00  -3.9513651392376137e-03 8.6426293665243827e-03 0.0000000000000000e+00  -4.4124985630652411e-03 8.9456039695173881e-03 0.0000000000000000e+00  -4.8629284008852016e-03 9.2837634417694964e-03 0.0000000000000000e+00  -5.3016738746267111e-03 9.6560103117819662e-03 0.0000000000000000e+00  -5.7269776209387859e-03 1.0062991508590344e-02 0.0000000000000000e+00  -6.1379260592873044e-03 1.0503991223151057e-02 0.0000000000000000e+00  -6.5328751356489951e-03 1.0978687182384358e-02 0.0000000000000000e+00  -6.9103675278768123e-03 1.1486667034761495e-02 0.0000000000000000e+00  -7.2690901027441541e-03 1.2027461011473764e-02 0.0000000000000000e+00  -7.6073388079920864e-03 1.2600252162577128e-02 0.0000000000000000e+00  -7.9240817228397719e-03 1.3204069880093155e-02 0.0000000000000000e+00  -8.2170468080200714e-03 1.3838738962998202e-02 0.0000000000000000e+00  -8.4854469901810350e-03 1.4502863860793571e-02 0.0000000000000000e+00  -8.7272609105766338e-03 1.5195298015310429e-02 0.0000000000000000e+00  -8.9408839712943888e-03 1.5915755117691371e-02 0.0000000000000000e+00  -9.1248836799683580e-03 1.6662682441858496e-02 0.0000000000000000e+00  -9.2777948602748121e-03 1.7433639287050197e-02 0.0000000000000000e+00  -9.3982493643858731e-03 1.8227727617326887e-02 0.0000000000000000e+00  -9.4840853058407830e-03 1.9042955954834965e-02 0.0000000000000000e+00  -9.5349493489320179e-0