<?xml version="1.0"?>
<VTKFile type="UnstructuredGrid"  version="0.1"  >
<UnstructuredGrid>
<Piece  NumberOfPoints="16275" NumberOfCells="32468">
<Points>
<DataArray  type="Float64"  NumberOfComponents="3"  format="ascii">-0.5 0.5 0  0.5 0.5 0  0.5 -0.5 0  -0.5 -0.5 0  -1 1 0  1 1 0  1 -1 0  -1 -1 0  -0.4900000000000277 0.5 0  -0.4800000000000555 0.5 0  -0.4700000000000832 0.5 0  -0.4600000000001109 0.5 0  -0.4500000000001387 0.5 0  -0.4400000000001664 0.5 0  -0.4300000000001942 0.5 0  -0.4200000000002219 0.5 0  -0.4100000000002497 0.5 0  -0.4000000000002774 0.5 0  -0.3900000000003052 0.5 0  -0.3800000000003328 0.5 0  -0.3700000000003606 0.5 0  -0.3600000000003883 0.5 0  -0.3500000000004161 0.5 0  -0.3400000000004438 0.5 0  -0.3300000000004716 0.5 0  -0.3200000000004993 0.5 0  -0.3100000000005271 0.5 0  -0.3000000000005548 0.5 0  -0.2900000000005825 0.5 0  -0.2800000000006103 0.5 0  -0.2700000000006381 0.5 0  -0.2600000000006658 0.5 0  -0.2500000000006935 0.5 0  -0.2400000000007212 0.5 0  -0.230000000000749 0.5 0  -0.2200000000007767 0.5 0  -0.2100000000008044 0.5 0  -0.2000000000008322 0.5 0  -0.19000000000086 0.5 0  -0.1800000000008877 0.5 0  -0.1700000000009154 0.5 0  -0.1600000000009431 0.5 0  -0.1500000000009709 0.5 0  -0.1400000000009986 0.5 0  -0.1300000000010264 0.5 0  -0.1200000000010541 0.5 0  -0.1100000000010818 0.5 0  -0.1000000000011096 0.5 0  -0.09000000000113734 0.5 0  -0.08000000000116503 0.5 0  -0.07000000000119283 0.5 0  -0.06000000000122058 0.5 0  -0.05000000000124827 0.5 0  -0.04000000000127607 0.5 0  -0.03000000000130376 0.5 0  -0.02000000000133151 0.5 0  -0.01000000000135925 0.5 0  -1.376121439022882e-12 0.5 0  0.009999999998640763 0.5 0  0.01999999999866864 0.5 0  0.02999999999869629 0.5 0  0.03999999999872406 0.5 0  0.04999999999875182 0.5 0  0.05999999999877947 0.5 0  0.06999999999880724 0.5 0  0.079999999998835 0.5 0  0.08999999999886266 0.5 0  0.09999999999889042 0.5 0  0.1099999999989182 0.5 0  0.1199999999989459 0.5 0  0.1299999999989737 0.5 0  0.1399999999990014 0.5 0  0.1499999999990291 0.5 0  0.1599999999990568 0.5 0  0.1699999999990847 0.5 0  0.1799999999991124 0.5 0  0.1899999999991401 0.5 0  0.1999999999991678 0.5 0  0.2099999999991955 0.5 0  0.2199999999992234 0.5 0  0.2299999999992511 0.5 0  0.2399999999992788 0.5 0  0.2499999999993066 0.5 0  0.2599999999993342 0.5 0  0.269999999999362 0.5 0  0.2799999999993897 0.5 0  0.2899999999994175 0.5 0  0.2999999999994452 0.5 0  0.3099999999994729 0.5 0  0.3199999999995007 0.5 0  0.3299999999995284 0.5 0  0.3399999999995562 0.5 0  0.3499999999995839 0.5 0  0.3599999999996116 0.5 0  0.3699999999996393 0.5 0  0.379999999999667 0.5 0  0.3899999999996949 0.5 0  0.3999999999997226 0.5 0  0.4099999999997503 0.5 0  0.419999999999778 0.5 0  0.4299999999998058 0.5 0  0.4399999999998336 0.5 0  0.4499999999998613 0.5 0  0.4599999999998891 0.5 0  0.4699999999999167 0.5 0  0.4799999999999445 0.5 0  0.4899999999999722 0.5 0  0.5 0.4900000000000277 0  0.5 0.4800000000000555 0  0.5 0.4700000000000832 0  0.5 0.4600000000001109 0  0.5 0.4500000000001387 0  0.5 0.4400000000001664 0  0.5 0.4300000000001942 0  0.5 0.4200000000002219 0  0.5 0.4100000000002497 0  0.5 0.4000000000002774 0  0.5 0.3900000000003052 0  0.5 0.3800000000003328 0  0.5 0.3700000000003606 0  0.5 0.3600000000003883 0  0.5 0.3500000000004161 0  0.5 0.3400000000004438 0  0.5 0.3300000000004716 0  0.5 0.3200000000004993 0  0.5 0.3100000000005271 0  0.5 0.3000000000005548 0  0.5 0.2900000000005825 0  0.5 0.2800000000006103 0  0.5 0.2700000000006381 0  0.5 0.2600000000006658 0  0.5 0.2500000000006935 0  0.5 0.2400000000007212 0  0.5 0.230000000000749 0  0.5 0.2200000000007767 0  0.5 0.2100000000008044 0  0.5 0.2000000000008322 0  0.5 0.19000000000086 0  0.5 0.1800000000008877 0  0.5 0.1700000000009154 0  0.5 0.1600000000009431 0  0.5 0.1500000000009709 0  0.5 0.1400000000009986 0  0.5 0.1300000000010264 0  0.5 0.1200000000010541 0  0.5 0.1100000000010818 0  0.5 0.1000000000011096 0  0.5 0.09000000000113734 0  0.5 0.08000000000116503 0  0.5 0.07000000000119283 0  0.5 0.06000000000122058 0  0.5 0.05000000000124827 0  0.5 0.04000000000127607 0  0.5 0.03000000000130376 0  0.5 0.02000000000133151 0  0.5 0.01000000000135925 0  0.5 1.376121439022882e-12 0  0.5 -0.009999999998640763 0  0.5 -0.01999999999866864 0  0.5 -0.02999999999869629 0  0.5 -0.03999999999872406 0  0.5 -0.04999999999875182 0  0.5 -0.05999999999877947 0  0.5 -0.06999999999880724 0  0.5 -0.079999999998835 0  0.5 -0.08999999999886266 0  0.5 -0.09999999999889042 0  0.5 -0.1099999999989182 0  0.5 -0.1199999999989459 0  0.5 -0.1299999999989737 0  0.5 -0.1399999999990014 0  0.5 -0.1499999999990291 0  0.5 -0.1599999999990568 0  0.5 -0.1699999999990847 0  0.5 -0.1799999999991124 0  0.5 -0.1899999999991401 0  0.5 -0.1999999999991678 0  0.5 -0.2099999999991955 0  0.5 -0.2199999999992234 0  0.5 -0.2299999999992511 0  0.5 -0.2399999999992788 0  0.5 -0.2499999999993066 0  0.5 -0.2599999999993342 0  0.5 -0.269999999999362 0  0.5 -0.2799999999993897 0  0.5 -0.2899999999994175 0  0.5 -0.2999999999994452 0  0.5 -0.3099999999994729 0  0.5 -0.3199999999995007 0  0.5 -0.3299999999995284 0  0.5 -0.3399999999995562 0  0.5 -0.3499999999995839 0  0.5 -0.3599999999996116 0  0.5 -0.3699999999996393 0  0.5 -0.379999999999667 0  0.5 -0.3899999999996949 0  0.5 -0.3999999999997226 0  0.5 -0.4099999999997503 0  0.5 -0.419999999999778 0  0.5 -0.4299999999998058 0  0.5 -0.4399999999998336 0  0.5 -0.4499999999998613 0  0.5 -0.4599999999998891 0  0.5 -0.4699999999999167 0  0.5 -0.4799999999999445 0  0.5 -0.4899999999999722 0  0.4900000000000277 -0.5 0  0.4800000000000555 -0.5 0  0.4700000000000832 -0.5 0  0.4600000000001109 -0.5 0  0.4500000000001387 -0.5 0  0.4400000000001664 -0.5 0  0.4300000000001942 -0.5 0  0.4200000000002219 -0.5 0  0.4100000000002497 -0.5 0  0.4000000000002774 -0.5 0  0.3900000000003052 -0.5 0  0.3800000000003328 -0.5 0  0.3700000000003606 -0.5 0  0.3600000000003883 -0.5 0  0.3500000000004161 -0.5 0  0.3400000000004438 -0.5 0  0.3300000000004716 -0.5 0  0.3200000000004993 -0.5 0  0.3100000000005271 -0.5 0  0.3000000000005548 -0.5 0  0.2900000000005825 -0.5 0  0.2800000000006103 -0.5 0  0.2700000000006381 -0.5 0  0.2600000000006658 -0.5 0  0.2500000000006935 -0.5 0  0.2400000000007212 -0.5 0  0.230000000000749 -0.5 0  0.2200000000007767 -0.5 0  0.2100000000008044 -0.5 0  0.2000000000008322 -0.5 0  0.19000000000086 -0.5 0  0.1800000000008877 -0.5 0  0.1700000000009154 -0.5 0  0.1600000000009431 -0.5 0  0.1500000000009709 -0.5 0  0.1400000000009986 -0.5 0  0.1300000000010264 -0.5 0  0.1200000000010541 -0.5 0  0.1100000000010818 -0.5 0  0.1000000000011096 -0.5 0  0.09000000000113734 -0.5 0  0.08000000000116503 -0.5 0  0.07000000000119283 -0.5 0  0.06000000000122058 -0.5 0  0.05000000000124827 -0.5 0  0.04000000000127607 -0.5 0  0.03000000000130376 -0.5 0  0.02000000000133151 -0.5 0  0.01000000000135925 -0.5 0  1.376121439022882e-12 -0.5 0  -0.009999999998640763 -0.5 0  -0.01999999999866864 -0.5 0  -0.02999999999869629 -0.5 0  -0.03999999999872406 -0.5 0  -0.04999999999875182 -0.5 0  -0.05999999999877947 -0.5 0  -0.06999999999880724 -0.5 0  -0.079999999998835 -0.5 0  -0.08999999999886266 -0.5 0  -0.09999999999889042 -0.5 0  -0.1099999999989182 -0.5 0  -0.1199999999989459 -0.5 0  -0.1299999999989737 -0.5 0  -0.1399999999990014 -0.5 0  -0.1499999999990291 -0.5 0  -0.1599999999990568 -0.5 0  -0.1699999999990847 -0.5 0  -0.1799999999991124 -0.5 0  -0.1899999999991401 -0.5 0  -0.1999999999991678 -0.5 0  -0.2099999999991955 -0.5 0  -0.2199999999992234 -0.5 0  -0.2299999999992511 -0.5 0  -0.2399999999992788 -0.5 0  -0.2499999999993066 -0.5 0  -0.2599999999993342 -0.5 0  -0.269999999999362 -0.5 0  -0.2799999999993897 -0.5 0  -0.2899999999994175 -0.5 0  -0.2999999999994452 -0.5 0  -0.3099999999994729 -0.5 0  -0.3199999999995007 -0.5 0  -0.3299999999995284 -0.5 0  -0.3399999999995562 -0.5 0  -0.3499999999995839 -0.5 0  -0.3599999999996116 -0.5 0  -0.3699999999996393 -0.5 0  -0.379999999999667 -0.5 0  -0.3899999999996949 -0.5 0  -0.3999999999997226 -0.5 0  -0.4099999999997503 -0.5 0  -0.419999999999778 -0.5 0  -0.4299999999998058 -0.5 0  -0.4399999999998336 -0.5 0  -0.4499999999998613 -0.5 0  -0.4599999999998891 -0.5 0  -0.4699999999999167 -0.5 0  -0.4799999999999445 -0.5 0  -0.4899999999999722 -0.5 0  -0.5 -0.4900000000000277 0  -0.5 -0.4800000000000555 0  -0.5 -0.4700000000000832 0  -0.5 -0.4600000000001109 0  -0.5 -0.4500000000001387 0  -0.5 -0.4400000000001664 0  -0.5 -0.4300000000001942 0  -0.5 -0.4200000000002219 0  -0.5 -0.4100000000002497 0  -0.5 -0.4000000000002774 0  -0.5 -0.3900000000003052 0  -0.5 -0.3800000000003328 0  -0.5 -0.3700000000003606 0  -0.5 -0.3600000000003883 0  -0.5 -0.3500000000004161 0  -0.5 -0.3400000000004438 0  -0.5 -0.3300000000004716 0  -0.5 -0.3200000000004993 0  -0.5 -0.3100000000005271 0  -0.5 -0.3000000000005548 0  -0.5 -0.2900000000005825 0  -0.5 -0.2800000000006103 0  -0.5 -0.2700000000006381 0  -0.5 -0.2600000000006658 0  -0.5 -0.2500000000006935 0  -0.5 -0.2400000000007212 0  -0.5 -0.230000000000749 0  -0.5 -0.2200000000007767 0  -0.5 -0.2100000000008044 0  -0.5 -0.2000000000008322 0  -0.5 -0.19000000000086 0  -0.5 -0.1800000000008877 0  -0.5 -0.1700000000009154 0  -0.5 -0.1600000000009431 0  -0.5 -0.1500000000009709 0  -0.5 -0.1400000000009986 0  -0.5 -0.1300000000010264 0  -0.5 -0.1200000000010541 0  -0.5 -0.1100000000010818 0  -0.5 -0.1000000000011096 0  -0.5 -0.09000000000113734 0  -0.5 -0.08000000000116503 0  -0.5 -0.07000000000119283 0  -0.5 -0.06000000000122058 0  -0.5 -0.05000000000124827 0  -0.5 -0.04000000000127607 0  -0.5 -0.03000000000130376 0  -0.5 -0.02000000000133151 0  -0.5 -0.01000000000135925 0  -0.5 -1.376121439022882e-12 0  -0.5 0.009999999998640763 0  -0.5 0.01999999999866864 0  -0.5 0.02999999999869629 0  -0.5 0.03999999999872406 0  -0.5 0.04999999999875182 0  -0.5 0.05999999999877947 0  -0.5 0.06999999999880724 0  -0.5 0.079999999998835 0  -0.5 0.08999999999886266 0  -0.5 0.09999999999889042
[...]
<PointData  Vectors="f_27-0"> 
<DataArray  type="Float64"  Name="f_27-0"  NumberOfComponents="3" format="ascii">5.3228530601698548e-04 4.3247429297337325e-02 0.0000000000000000e+00  -8.1597760672756138e-04 4.3225025825837045e-02 0.0000000000000000e+00  4.6732677860879116e-04 4.1949918088782491e-02 0.0000000000000000e+00  -2.4764508326928329e-04 4.1933510931551468e-02 0.0000000000000000e+00  -1.8132717699024361e-03 6.9083081956194271e-03 0.0000000000000000e+00  1.9509425341592008e-03 6.7040215451138292e-03 0.0000000000000000e+00  -1.7205502077179457e-03 6.9358938054701500e-03 0.0000000000000000e+00  1.8868346247342739e-03 6.6893947334346849e-03 0.0000000000000000e+00  1.5711485518357265e-03 4.2634913355671905e-02 0.0000000000000000e+00  2.5682192632031850e-03 4.1964218769168164e-02 0.0000000000000000e+00  3.5318577151419346e-03 4.1235076599598935e-02 0.0000000000000000e+00  4.4574993520033971e-03 4.0451460624889524e-02 0.0000000000000000e+00  5.3356605056279214e-03 3.9616172129395465e-02 0.0000000000000000e+00  6.1692286550755326e-03 3.8735905160321993e-02 0.0000000000000000e+00  6.9525346533299680e-03 3.7809731609467684e-02 0.0000000000000000e+00  7.6861660603536218e-03 3.6846023329397883e-02 0.0000000000000000e+00  8.3659841177514196e-03 3.5851130389539992e-02 0.0000000000000000e+00  8.9895004282272411e-03 3.4825049023208696e-02 0.0000000000000000e+00  9.5617629188522232e-03 3.3776494255819488e-02 0.0000000000000000e+00  1.0074626841280587e-02 3.2707255191465237e-02 0.0000000000000000e+00  1.0531763980473547e-02 3.1621665804644039e-02 0.0000000000000000e+00  1.0933390148921990e-02 3.0523836547539353e-02 0.0000000000000000e+00  1.1275998202956838e-02 2.9423455050683809e-02 0.0000000000000000e+00  1.1564829024877057e-02 2.8321543570763247e-02 0.0000000000000000e+00  1.1798949653428165e-02 2.7217481135383376e-02 0.0000000000000000e+00  1.1977150991955855e-02 2.6122564908882068e-02 0.0000000000000000e+00  1.2103715062085794e-02 2.5037333080181492e-02 0.0000000000000000e+00  1.2179856421215286e-02 2.3964831304827381e-02 0.0000000000000000e+00  1.2205290306128063e-02 2.2909570762645048e-02 0.0000000000000000e+00  1.2183072174197642e-02 2.1872423710194010e-02 0.0000000000000000e+00  1.2116897347802420e-02 2.0857859563887800e-02 0.0000000000000000e+00  1.2004608788476902e-02 1.9868300761495573e-02 0.0000000000000000e+00  1.1849967482773036e-02 1.8904202699313550e-02 0.0000000000000000e+00  1.1659236757338839e-02 1.7971005454007091e-02 0.0000000000000000e+00  1.1427017275329809e-02 1.7069026256559823e-02 0.0000000000000000e+00  1.1161163517547080e-02 1.6201122483607784e-02 0.0000000000000000e+00  1.0861899250701301e-02 1.5362672131309854e-02 0.0000000000000000e+00  1.0532036397880957e-02 1.4561811106499364e-02 0.0000000000000000e+00  1.0170809700707408e-02 1.3793955808475511e-02 0.0000000000000000e+00  9.7847931286839732e-03 1.3064270082402796e-02 0.0000000000000000e+00  9.3721564375644547e-03 1.2374500895327198e-02 0.0000000000000000e+00  8.9375250610967596e-03 1.1722367738698124e-02 0.0000000000000000e+00  8.4810701795330901e-03 1.1108771746725192e-02 0.0000000000000000e+00  8.0033105739664920e-03 1.0527459407404825e-02 0.0000000000000000e+00  7.5111398094236635e-03 9.9930931362909869e-03 0.0000000000000000e+00  6.9975712901233405e-03 9.4956712080231827e-03 0.0000000000000000e+00  6.4745095070342330e-03 9.0365872289364362e-03 0.0000000000000000e+00  5.9331667629638988e-03 8.6204916812950682e-03 0.0000000000000000e+00  5.3840751149765182e-03 8.2414679134054335e-03 0.0000000000000000e+00  4.8233008558927655e-03 7.9015872756442312e-03 0.0000000000000000e+00  4.2519000347126653e-03 7.6034428629011986e-03 0.0000000000000000e+00  3.6744177729312443e-03 7.3420809073836361e-03 0.0000000000000000e+00  3.0891265965251624e-03 7.1225131858371621e-03 0.0000000000000000e+00  2.4971090475227626e-03 6.9400525400861541e-03 0.0000000000000000e+00  1.9028704733517758e-03 6.7995365111187360e-03 0.0000000000000000e+00  1.3029632379458161e-03 6.6959526153133704e-03 0.0000000000000000e+00  7.0509791749914503e-04 6.6306916748720473e-03 0.0000000000000000e+00  1.0074440144526982e-04 6.6083356721604643e-03 0.0000000000000000e+00  -5.0197905127176055e-04 6.6225290213434490e-03 0.0000000000000000e+00  -1.1022681894233780e-03 6.6764569735953024e-03 0.0000000000000000e+00  -1.7021777271139288e-03 6.7667893622226846e-03 0.0000000000000000e+00  -2.2983942049537897e-03 6.8991329816263883e-03 0.0000000000000000e+00  -2.8915236529274725e-03 7.0705083964654990e-03 0.0000000000000000e+00  -3.4769823527062834e-03 7.2809845573007055e-03 0.0000000000000000e+00  -4.0586999087349690e-03 7.5311928145182522e-03 0.0000000000000000e+00  -4.6303406455519679e-03 7.8211402295421725e-03 0.0000000000000000e+00  -5.1948924538271360e-03 8.1507687830928328e-03 0.0000000000000000e+00  -5.7507613664952101e-03 8.5186433949866087e-03 0.0000000000000000e+00  -6.2923920268322820e-03 8.9272247314992285e-03 0.0000000000000000e+00  -6.8240599529882460e-03 9.3754416177456376e-03 0.0000000000000000e+00  -7.3397497934371532e-03 9.8614438233767775e-03 0.0000000000000000e+00  -7.8397538532709015e-03 1.0387683687344093e-02 0.0000000000000000e+00  -8.3228726390717454e-03 1.0954527018712568e-02 0.0000000000000000e+00  -8.7857575009337510e-03 1.1557862286095231e-02 0.0000000000000000e+00  -9.2305404233866718e-03 1.2200483699496905e-02 0.0000000000000000e+00  -9.6484450028305122e-03 1.2884014883378862e-02 0.0000000000000000e+00  -1.0046855358010537e-02 1.3602808491833313e-02 0.0000000000000000e+00  -1.0415325485014077e-02 1.4361208543782911e-02 0.0000000000000000e+00  -1.0754524696892653e-02 1.5156068971530403e-02 0.0000000000000000e+00  -1.1066745818447556e-02 1.5983578696293715e-02 0.0000000000000000e+00  -1.1343506753689151e-02 1.6842920147928573e-02 0.0000000000000000e+00  -1.1589393730624335e-02 1.7738440571141864e-02 0.0000000000000000e+00  -1.1791128688873883e-02 1.8666293464482467e-02 0.0000000000000000e+00  -1.1963791159358757e-02 1.9624263470486892e-02 0.0000000000000000e+00  -1.2086701342142299e-02 2.0610521316204625e-02 0.0000000000000000e+00  -1.2171941070284043e-02 2.1617813969056154e-02 0.0000000000000000e+00  -1.2208655648363624e-02 2.2654747132330622e-02 0.0000000000000000e+00  -1.2199394340041022e-02 2.3708224556019401e-02 0.0000000000000000e+00  -1.2140940801889585e-02 2.4781045398418043e-02 0.0000000000000000e+00  -1.2031552927290114e-02 2.5865515034396772e-02 0.0000000000000000e+00  -1.1870641789833028e-02 2.6961695072582375e-02 0.0000000000000000e+00  -1.1653742278174286e-02 2.8069350523786701e-02 0.0000000000000000e+00  -1.1383578469496324e-02 2.9175640027598388e-02 0.0000000000000000e+00  -1.1057839970214426e-02 3.0284540258517130e-02 0.0000000000000000e+00  -1.0674216524370469e-02 3.1387498611609305e-02 0.0000000000000000e+00  -1.0234346013805261e-02 3.2480797563882557e-02 0.0000000000000000e+00  -9.7363315851524846e-03 3.3561041278706329e-02 0.0000000000000000e+00  -9.1839134577478641e-03 3.4622546838622051e-02 0.0000000000000000e+00  -8.5726619758434673e-03 3.5660747051115167e-02 0.0000000000000000e+00  -7.9062468660109041e-03 3.6672138057289777e-02 0.0000000000000000e+00  -7.1861749000444938e-03 3.7648514996938685e-02 0.0000000000000000e+00  -6.4142326802407272e-03 3.8591543038397409e-02 0.0000000000000000e+00  -5.5919464035880332e-03 3.9494162051513564e-02 0.0000000000000000e+00  -4.7240032805990701e-03 4.0347040735006105e-02 0.0000000000000000e+00  -3.8046267088119156e-03 4.1152146624014174e-02 0.0000000000000000e+00  -2.8471336968858832e-03 4.1900076421528931e-02 0.0000000000000000e+00  -1.8535100347662722e-03 4.2590618100209608e-02 0.0000000000000000e+00  -1.0380317467610146e-03 4.4305649707582030e-02 0.0000000000000000e+00  -1.2754590737745135e-03 4.5422195947823693e-02 0.0000000000000000e+00  -1.5277611088677231e-03 4.6604323226507080e-02 0.0000000000000000e+00  -1.7924938018792492e-03 4.7836521265199626e-02 0.0000000000000000e+00  -2.0748425719048225e-03 4.9133535735175780e-02 0.0000000000000000e+00  -2.3916709709275435e-03 5.0500424723379664e-02 0.0000000000000000e+00  -2.7023478091718718e-03 5.1920088272686286e-02 0.0000000000000000e+00  -3.0443162318468456e-03 5.3430896091587868e-02 0.0000000000000000e+00  -3.4124799237808339e-03 5.5005661418608853e-02 0.0000000000000000e+00  -3.7886290785359858e-03 5.6669986245541842e-02 0.0000000000000000e+00  -4.1927496956329722e-03 5.8424869655668177e-02 0.0000000000000000e+00  -4.6237728998464655e-03 6.0267791179221861e-02 0.0000000000000000e+00  -5.0815818296858183e-03 6.2222144260303862e-02 0.0000000000000000e+00  -5.5627948792784576e-03 6.4269435130460156e-02 0.0000000000000000e+00  -6.0691317419534988e-03 6.6441678559638812e-02 0.0000000000000000e+00  -6.6140867517883286e-03 6.8739884736215118e-02 0.0000000000000000e+00  -7.1973483154036686e-03 7.1157883065323516e-02 0.0000000000000000e+00  -7.8040628223458586e-03 7.3725010150335127e-02 0.0000000000000000e+00  -8.4359425986197823e-03 7.6439825089695726e-02 0.0000000000000000e+00  -9.1180578076301734e-03 7.9308915594856408e-02 0.0000000000000000e+00  -9.8467931184123159e-03 8.2348008004333201e-02 0.0000000000000000e+00  -1.0619273822273293e-02 8.5562891525909610e-02 0.0000000000000000e+00  -1.1445142917626785e-02 8.8969702060108832e-02 0.0000000000000000e+00  -1.2308050051200203e-02 9.2549552530806864e-02 0.0000000000000000e+00  -1.3187162261476024e-02 9.6361070271774846e-02 0.0000000000000000e+00  -1.4126752736495052e-02 1.0033423119086222e-01 0.0000000000000000e+00  -1.5084817518625299e-02 1.0454706781752808e-01 0.0000000000000000e+00  -1.6033746036775886e-02 1.0892873618210661e-01 0.0000000000000000e+00  -1.6962548229391219e-02 1.1350265108706355e-01 0.0000000000000000e+00  -1.7847909635844920e-02 1.1821511456061409e-01 0.0000000000000000e+00  -1.8581350665134250e-02 1.2306784461090431e-01 0.0000000000000000e+00  -1.9061090249529133e-02 1.2794912263812092e-01 0.0000000000000000e+00  -1.9179540999305567e-02 1.3284658579566344e-01 0.0000000000000000e+00  -1.8796955283132959e-02 1.3756228366153736e-01 0.0000000000000000e+00  -1.7681147925934695e-02 1.4203198606721257e-01 0.0000000000000000e+00  -1.5507729727712262e-02 1.4601595920653457e-01 0.0000000000000000e+00  -1.2151195366598935e-02 1.4929767208160516e-01 0.0000000000000000e+00  -7.0766738929552925e-03 1.5154189563714340e-01 0.0000000000000000e+00  -4.7116474235224232e-05 1.5239129451293507e-01 0.0000000000000000e+00  9.4947703980061571e-03 1.5142667924168607e-01 0.0000000000000000e+00  2.1578949402497830e-02 1.4800887257231113e-01 0.0000000000000000e+00  3.6538675363080864e-02 1.4165743168191547e-01 0.0000000000000000e+00  5.3725193094632480e-02 1.3171891516369030e-01 0.0000000000000000e+00  7.1613965628562787e-02 1.1774774368615043e-01 0.0000000000000000e+00  8.6649764344580368e-02 1.0002074170466310e-01 0.0000000000000000e+00  9.2337451308415919e-02 7.9235680603295333e-02 0.0000000000000000e+00  7.9781297268780235e-02 5.8073728682386361e-02 0.0000000000000000e+00  4.3311593510083353e-02 3.9352677209961391e-02 0.0000000000000000e+00  -1.4363232522078481e-02 3.0204572916593776e-02 0.0000000000000000e+00  -7.1672810334905787e-02 3.7940117732166254e-02 0.0000000000000000e+00  -9.7538436931966330e-02 6.1914044665542102e-02 0.0000000000000000e+00  -9.1901228621712086e-02 9.3237797772653480e-02 0.0000000000000000e+00  -7.2418852347529802e-02 1.1842212278777536e-01 0.0000000000000000e+00  -5.3095670885967186e-02 1.3598685845755723e-01 0.0000000000000000e+00  -3.6816562430475583e-02 1.4736660025367099e-01 0.0000000000000000e+00  -2.3626883853565313e-02 1.5444534457996167e-01 0.0000000000000000e+00  -1.2930708338548600e-02 1.5805384291226188e-01 0.0000000000000000e+00  -4.5615500511737720e-03 1.5929072115015336e-01 0.0000000000000000e+00  2.0266055836907562e-03 1.5849270876276847e-01 0.0000000000000000e+00  6.9828173883505762e-03 1.5645485962556768e-01 0.0000000000000000e+00  1.0693727541427738e-02 1.5328329597013748e-01 0.0000000000000000e+00  1.3288153095066303e-02 1.4943496088340213e-01 0.0000000000000000e+00  1.5048549042532673e-02 1.4505164291863495e-01 0.0000000000000000e+00  1.6088336000060398e-02 1.4034905670270970e-01 0.0000000000000000e+00  1.6575680198024384e-02 1.3545961335460230e-01 0.0000000000000000e+00  1.6682072087134171e-02 1.3051478246523579e-01 0.0000000000000000e+00  1.6438023398777628e-02 1.2555927091132210e-01 0.0000000000000000e+00  1.6021470430903753e-02 1.2068847060682246e-01 0.0000000000000000e+00  1.5414718839124262e-02 1.1594311936921686e-01 0.0000000000000000e+00  1.4742980108798745e-02 1.1132850632561521e-01 0.0000000000000000e+00  1.3998007120789283e-02 1.0691452526644316e-01 0.0000000000000000e+00  1.3260589212295077e-02 1.0265929122047167e-01 0.0000000000000000e+00  1.2476819698004921e-02 9.8652876834937980e-02 0.0000000000000000e+00  1.1743046873232648e-02 9.4778024671200015e-02 0.0000000000000000e+00  1.0986836832919370e-02 9.1142228238443937e-02 0.0000000000000000e+00  1.0255134545551390e-02 8.7670146606981011e-02 0.0000000000000000e+00  9.5813429912583615e-03 8.4395751077991896e-02 0.0000000000000000e+00  8.9330804807592912e-03 8.1287921567053778e-02 0.0000000000000000e+00  8.2986018178446298e-03 7.8345718015489535e-02 0.0000000000000000e+00  7.6952616209958503e-03 7.5568531097704172e-02 0.0000000000000000e+00  7.1286001707189846e-03 7.2929913705833030e-02 0.0000000000000000e+00  6.5879841871754018e-03 7.0441112804044484e-02 0.0000000000000000e+00  6.0663610947507569e-03 6.8078618989442924e-02 0.0000000000000000e+00  5.5870118699758425e-03 6.5838369592182255e-02 0.0000000000000000e+00  5.1208400481172868e-03 6.3722064447682664e-02 0.0000000000000000e+00  4.6733333964645964e-03 6.1710232191962769e-02 0.0000000000000000e+00  4.2525884790184194e-03 5.9798706138689053e-02 0.0000000000000000e+00  3.8552365674631209e-03 5.7988322586019908e-02 0.0000000000000000e+00  3.4829418754930667e-03 5.6260474977012198e-02 0.0000000000000000e+00  3.1245356543100709e-03 5.4629738490016247e-02 0.0000000000000000e+00  2.7817840378895958e-03 5.3067294313694183e-02 0.0000000000000000e+00  2.4572327354316589e-03 5.1586645268457965e-02 0.0000000000000000e+00  2.1579275525995976e-03 5.0172900303963132e-02 0.0000000000000000e+00  1.8731207249568227e-03 4.8824660845184997e-02 0.0000000000000000e+00  1.6007538438026349e-03 4.7548205481396523e-02 0.0000000000000000e+00  1.3455353704965015e-03 4.6323989981950225e-02 0.0000000000000000e+00  1.1055618467687434e-03 4.5151823975431889e-02 0.0000000000000000e+00  8.7460623392906838e-04 4.4039945989756413e-02 0.0000000000000000e+00  6.6443422197254970e-04 4.2974514182977888e-02 0.0000000000000000e+00  1.4547767112314805e-03 4.1358038567915006e-02 0.0000000000000000e+00  2.4018013140140989e-03 4.0704184554843613e-02 0.0000000000000000e+00  3.3123871200122618e-03 3.9998146814014750e-02 0.0000000000000000e+00  4.1874264129152924e-03 3.9242367078664055e-02 0.0000000000000000e+00  5.0177466902928403e-03 3.8437377173638938e-02 0.0000000000000000e+00  5.8059231083024522e-03 3.7592361891749013e-02 0.0000000000000000e+00  6.5442661357200610e-03 3.6700865913741124e-02 0.0000000000000000e+00  7.2402923276519131e-03 3.5775641817115643e-02 0.0000000000000000e+00  7.8817112755296560e-03 3.4825078530592107e-02 0.0000000000000000e+00  8.4711751551378774e-03 3.3839624984789984e-02 0.0000000000000000e+00  9.0111995972130630e-03 3.2835800751199469e-02 0.0000000000000000e+00  9.4975294374667184e-03 3.1813865865002580e-02 0.0000000000000000e+00  9.9285362400368341e-03 3.0776102246980082e-02 0.0000000000000000e+00  1.0308764751209286e-02 2.9727697219597424e-02 0.0000000000000000e+00  1.0633803272099016e-02 2.8674004846755727e-02 0.0000000000000000e+00  1.0907453418659755e-02 2.7623483350183511e-02 0.0000000000000000e+00  1.1127187201364616e-02 2.6568232882125155e-02 0.0000000000000000e+00  1.1297353480636780e-02 2.5519897440914013e-02 0.0000000000000000e+00  1.1417577017251899e-02 2.4481308102799328e-02 0.0000000000000000e+00  1.1489685530364200e-02 2.3456747720155446e-02 0.0000000000000000e+00  1.1515294013128589e-02 2.2447903315880053e-02 0.0000000000000000e+00  1.1493060650101689e-02 2.1454815166779714e-02 0.0000000000000000e+00  1.1431452802193317e-02 2.0486711765773567e-02 0.0000000000000000e+00  1.1324367621383859e-02 1.9536846458410598e-02 0.0000000000000000e+00  1.1178131879774520e-02 1.8613927958960583e-02 0.0000000000000000e+00  1.0995752610347792e-02 1.7720092469854440e-02 0.0000000000000000e+00  1.0775918527611051e-02 1.6856726021109783e-02 0.0000000000000000e+00  1.0523152151692262e-02 1.6023946704004758e-02 0.0000000000000000e+00  1.0235791171190289e-02 1.5221252344113855e-02 0.0000000000000000e+00  9.9223404601970003e-03 1.4454727328196070e-02 0.0000000000000000e+00  9.5767350769285220e-03 1.3717023389598182e-02 0.0000000000000000e+00  9.2090695535205977e-03 1.3018277554754374e-02 0.0000000000000000e+00  8.8139941261787917e-03 1.2355489229698710e-02 0.0000000000000000e+00  8.3980629222201418e-03 1.1729894305988505e-02 0.0000000000000000e+00  7.9612399256478398e-03 1.1140581523922050e-02 0.0000000000000000e+00  7.5033752728090259e-03 1.0583572348559890e-02 0.0000000000000000e+00  7.0324268121356595e-03 1.0072666406570476e-02 0.0000000000000000e+00  6.5387817184229492e-03 9.5960026802141447e-03 0.0000000000000000e+00  6.0387984456166882e-03 9.1579876191754915e-03 0.0000000000000000e+00  5.5186555987814792e-03 8.7607509267688191e-03 0.0000000000000000e+00  4.9919244946010025e-03 8.3994925059366326e-03 0.0000000000000000e+00  4.4531924728014359e-03 8.0786216122046301e-03 0.0000000000000000e+00  3.9054397835080737e-03 7.7955079288953020e-03 0.0000000000000000e+00  3.3508212603064816e-03 7.5493458428273650e-03 0.0000000000000000e+00  2.7888005096756321e-03 7.3443426844857721e-03 0.0000000000000000e+00  2.2207102153803952e-03 7.1743847003006437e-03 0.0000000000000000e+00  1.6509451726502064e-03 7.0456941511229058e-03 0.0000000000000000e+00  1.0741956467011115e-03 6.9512889924591478e-03 0.0000000000000000e+00  5.0177859185936559e-04 6.8970728222750421e-03 0.0000000000000000e+00  -7.7390893864380791e-05 6.8860380215657341e-03 0.0000000000000000e+00  -6.5510800732090143e-04 6.9076997787050559e-03 0.0000000000000000e+00  -1.2299300860515584e-03 6.9703031940808536e-03 0.0000000000000000e+00  -1.8034909437300932e-03 7.0689363976536414e-03 0.0000000000000000e+00  -2.3728261734844011e-03 7.2083052032428001e-03 0.0000000000000000e+00  -2.9388505964086024e-03 7.3847581481593476e-03 0.0000000000000000e+00  -3.4963810771423721e-03 7.5998811283008996e-03 0.0000000000000000e+00  -4.0505894960674999e-03 7.8523815886174780e-03 0.0000000000000000e+00  -4.5936017608611355e-03 8.1451205341862842e-03 0.0000000000000000e+00  -5.1290484799455726e-03 8.4769738944965416e-03 0.0000000000000000e+00  -5.6549254089755070e-03 8.8465310589632608e-03 0.0000000000000000e+00  -6.1664245832509131e-03 9.2529144501310740e-03 0.0000000000000000e+00  -6.6666250620107037e-03 9.6993141936827856e-03 0.0000000000000000e+00  -7.1509590596159061e-03 1.0180918391732892e-02 0.0000000000000000e+00  -7.6190191494270969e-03 1.0702521568646556e-02 0.0000000000000000e+00  -8.0692538506969020e-03 1.1264092002470973e-02 0.0000000000000000e+00  -8.4999486615917382e-03 1.1860615777841178e-02 0.0000000000000000e+00  -8.9090840786917001e-03 1.2492255743826853e-02 0.0000000000000000e+00  -9.2938184746810693e-03 1.3163469822827735e-02 0.0000000000000000e+00  -9.6570665453598777e-03 1.3868164431941677e-02 0.0000000000000000e+00  -9.9909959068758183e-03 1.4608988651476100e-02 0.0000000000000000e+00  -1.0295978850859961e-02 1.5384179871217029e-02 0.0000000000000000e+00  -1.0572932165108568e-02 1.6191433761703192e-02 0.0000000000000000e+00  -1.0815087548434178e-02 1.7028104221211801e-02 0.0000000000000000e+00  -1.1025820975811678e-02 1.7895449595034984e-02 0.0000000000000000e+00  -1.1193887392182623e-02 1.8793556400176398e-02 0.0000000000000000e+00  -1.1332167653284566e-02 1.9721737383624427e-02 0.0000000000000000e+00  -1.1423336123682440