<?xml version="1.0"?>
<VTKFile type="UnstructuredGrid"  version="0.1"  >
<UnstructuredGrid>
<Piece  NumberOfPoints="16275" NumberOfCells="32468">
<Points>
<DataArray  type="Float64"  NumberOfComponents="3"  format="ascii">-0.5 0.5 0  0.5 0.5 0  0.5 -0.5 0  -0.5 -0.5 0  -1 1 0  1 1 0  1 -1 0  -1 -1 0  -0.4900000000000277 0.5 0  -0.4800000000000555 0.5 0  -0.4700000000000832 0.5 0  -0.4600000000001109 0.5 0  -0.4500000000001387 0.5 0  -0.4400000000001664 0.5 0  -0.4300000000001942 0.5 0  -0.4200000000002219 0.5 0  -0.4100000000002497 0.5 0  -0.4000000000002774 0.5 0  -0.3900000000003052 0.5 0  -0.3800000000003328 0.5 0  -0.3700000000003606 0.5 0  -0.3600000000003883 0.5 0  -0.3500000000004161 0.5 0  -0.3400000000004438 0.5 0  -0.3300000000004716 0.5 0  -0.3200000000004993 0.5 0  -0.3100000000005271 0.5 0  -0.3000000000005548 0.5 0  -0.2900000000005825 0.5 0  -0.2800000000006103 0.5 0  -0.2700000000006381 0.5 0  -0.2600000000006658 0.5 0  -0.2500000000006935 0.5 0  -0.2400000000007212 0.5 0  -0.230000000000749 0.5 0  -0.2200000000007767 0.5 0  -0.2100000000008044 0.5 0  -0.2000000000008322 0.5 0  -0.19000000000086 0.5 0  -0.1800000000008877 0.5 0  -0.1700000000009154 0.5 0  -0.1600000000009431 0.5 0  -0.1500000000009709 0.5 0  -0.1400000000009986 0.5 0  -0.1300000000010264 0.5 0  -0.1200000000010541 0.5 0  -0.1100000000010818 0.5 0  -0.1000000000011096 0.5 0  -0.09000000000113734 0.5 0  -0.08000000000116503 0.5 0  -0.07000000000119283 0.5 0  -0.06000000000122058 0.5 0  -0.05000000000124827 0.5 0  -0.04000000000127607 0.5 0  -0.03000000000130376 0.5 0  -0.02000000000133151 0.5 0  -0.01000000000135925 0.5 0  -1.376121439022882e-12 0.5 0  0.009999999998640763 0.5 0  0.01999999999866864 0.5 0  0.02999999999869629 0.5 0  0.03999999999872406 0.5 0  0.04999999999875182 0.5 0  0.05999999999877947 0.5 0  0.06999999999880724 0.5 0  0.079999999998835 0.5 0  0.08999999999886266 0.5 0  0.09999999999889042 0.5 0  0.1099999999989182 0.5 0  0.1199999999989459 0.5 0  0.1299999999989737 0.5 0  0.1399999999990014 0.5 0  0.1499999999990291 0.5 0  0.1599999999990568 0.5 0  0.1699999999990847 0.5 0  0.1799999999991124 0.5 0  0.1899999999991401 0.5 0  0.1999999999991678 0.5 0  0.2099999999991955 0.5 0  0.2199999999992234 0.5 0  0.2299999999992511 0.5 0  0.2399999999992788 0.5 0  0.2499999999993066 0.5 0  0.2599999999993342 0.5 0  0.269999999999362 0.5 0  0.2799999999993897 0.5 0  0.2899999999994175 0.5 0  0.2999999999994452 0.5 0  0.3099999999994729 0.5 0  0.3199999999995007 0.5 0  0.3299999999995284 0.5 0  0.3399999999995562 0.5 0  0.3499999999995839 0.5 0  0.3599999999996116 0.5 0  0.3699999999996393 0.5 0  0.379999999999667 0.5 0  0.3899999999996949 0.5 0  0.3999999999997226 0.5 0  0.4099999999997503 0.5 0  0.419999999999778 0.5 0  0.4299999999998058 0.5 0  0.4399999999998336 0.5 0  0.4499999999998613 0.5 0  0.4599999999998891 0.5 0  0.4699999999999167 0.5 0  0.4799999999999445 0.5 0  0.4899999999999722 0.5 0  0.5 0.4900000000000277 0  0.5 0.4800000000000555 0  0.5 0.4700000000000832 0  0.5 0.4600000000001109 0  0.5 0.4500000000001387 0  0.5 0.4400000000001664 0  0.5 0.4300000000001942 0  0.5 0.4200000000002219 0  0.5 0.4100000000002497 0  0.5 0.4000000000002774 0  0.5 0.3900000000003052 0  0.5 0.3800000000003328 0  0.5 0.3700000000003606 0  0.5 0.3600000000003883 0  0.5 0.3500000000004161 0  0.5 0.3400000000004438 0  0.5 0.3300000000004716 0  0.5 0.3200000000004993 0  0.5 0.3100000000005271 0  0.5 0.3000000000005548 0  0.5 0.2900000000005825 0  0.5 0.2800000000006103 0  0.5 0.2700000000006381 0  0.5 0.2600000000006658 0  0.5 0.2500000000006935 0  0.5 0.2400000000007212 0  0.5 0.230000000000749 0  0.5 0.2200000000007767 0  0.5 0.2100000000008044 0  0.5 0.2000000000008322 0  0.5 0.19000000000086 0  0.5 0.1800000000008877 0  0.5 0.1700000000009154 0  0.5 0.1600000000009431 0  0.5 0.1500000000009709 0  0.5 0.1400000000009986 0  0.5 0.1300000000010264 0  0.5 0.1200000000010541 0  0.5 0.1100000000010818 0  0.5 0.1000000000011096 0  0.5 0.09000000000113734 0  0.5 0.08000000000116503 0  0.5 0.07000000000119283 0  0.5 0.06000000000122058 0  0.5 0.05000000000124827 0  0.5 0.04000000000127607 0  0.5 0.03000000000130376 0  0.5 0.02000000000133151 0  0.5 0.01000000000135925 0  0.5 1.376121439022882e-12 0  0.5 -0.009999999998640763 0  0.5 -0.01999999999866864 0  0.5 -0.02999999999869629 0  0.5 -0.03999999999872406 0  0.5 -0.04999999999875182 0  0.5 -0.05999999999877947 0  0.5 -0.06999999999880724 0  0.5 -0.079999999998835 0  0.5 -0.08999999999886266 0  0.5 -0.09999999999889042 0  0.5 -0.1099999999989182 0  0.5 -0.1199999999989459 0  0.5 -0.1299999999989737 0  0.5 -0.1399999999990014 0  0.5 -0.1499999999990291 0  0.5 -0.1599999999990568 0  0.5 -0.1699999999990847 0  0.5 -0.1799999999991124 0  0.5 -0.1899999999991401 0  0.5 -0.1999999999991678 0  0.5 -0.2099999999991955 0  0.5 -0.2199999999992234 0  0.5 -0.2299999999992511 0  0.5 -0.2399999999992788 0  0.5 -0.2499999999993066 0  0.5 -0.2599999999993342 0  0.5 -0.269999999999362 0  0.5 -0.2799999999993897 0  0.5 -0.2899999999994175 0  0.5 -0.2999999999994452 0  0.5 -0.3099999999994729 0  0.5 -0.3199999999995007 0  0.5 -0.3299999999995284 0  0.5 -0.3399999999995562 0  0.5 -0.3499999999995839 0  0.5 -0.3599999999996116 0  0.5 -0.3699999999996393 0  0.5 -0.379999999999667 0  0.5 -0.3899999999996949 0  0.5 -0.3999999999997226 0  0.5 -0.4099999999997503 0  0.5 -0.419999999999778 0  0.5 -0.4299999999998058 0  0.5 -0.4399999999998336 0  0.5 -0.4499999999998613 0  0.5 -0.4599999999998891 0  0.5 -0.4699999999999167 0  0.5 -0.4799999999999445 0  0.5 -0.4899999999999722 0  0.4900000000000277 -0.5 0  0.4800000000000555 -0.5 0  0.4700000000000832 -0.5 0  0.4600000000001109 -0.5 0  0.4500000000001387 -0.5 0  0.4400000000001664 -0.5 0  0.4300000000001942 -0.5 0  0.4200000000002219 -0.5 0  0.4100000000002497 -0.5 0  0.4000000000002774 -0.5 0  0.3900000000003052 -0.5 0  0.3800000000003328 -0.5 0  0.3700000000003606 -0.5 0  0.3600000000003883 -0.5 0  0.3500000000004161 -0.5 0  0.3400000000004438 -0.5 0  0.3300000000004716 -0.5 0  0.3200000000004993 -0.5 0  0.3100000000005271 -0.5 0  0.3000000000005548 -0.5 0  0.2900000000005825 -0.5 0  0.2800000000006103 -0.5 0  0.2700000000006381 -0.5 0  0.2600000000006658 -0.5 0  0.2500000000006935 -0.5 0  0.2400000000007212 -0.5 0  0.230000000000749 -0.5 0  0.2200000000007767 -0.5 0  0.2100000000008044 -0.5 0  0.2000000000008322 -0.5 0  0.19000000000086 -0.5 0  0.1800000000008877 -0.5 0  0.1700000000009154 -0.5 0  0.1600000000009431 -0.5 0  0.1500000000009709 -0.5 0  0.1400000000009986 -0.5 0  0.1300000000010264 -0.5 0  0.1200000000010541 -0.5 0  0.1100000000010818 -0.5 0  0.1000000000011096 -0.5 0  0.09000000000113734 -0.5 0  0.08000000000116503 -0.5 0  0.07000000000119283 -0.5 0  0.06000000000122058 -0.5 0  0.05000000000124827 -0.5 0  0.04000000000127607 -0.5 0  0.03000000000130376 -0.5 0  0.02000000000133151 -0.5 0  0.01000000000135925 -0.5 0  1.376121439022882e-12 -0.5 0  -0.009999999998640763 -0.5 0  -0.01999999999866864 -0.5 0  -0.02999999999869629 -0.5 0  -0.03999999999872406 -0.5 0  -0.04999999999875182 -0.5 0  -0.05999999999877947 -0.5 0  -0.06999999999880724 -0.5 0  -0.079999999998835 -0.5 0  -0.08999999999886266 -0.5 0  -0.09999999999889042 -0.5 0  -0.1099999999989182 -0.5 0  -0.1199999999989459 -0.5 0  -0.1299999999989737 -0.5 0  -0.1399999999990014 -0.5 0  -0.1499999999990291 -0.5 0  -0.1599999999990568 -0.5 0  -0.1699999999990847 -0.5 0  -0.1799999999991124 -0.5 0  -0.1899999999991401 -0.5 0  -0.1999999999991678 -0.5 0  -0.2099999999991955 -0.5 0  -0.2199999999992234 -0.5 0  -0.2299999999992511 -0.5 0  -0.2399999999992788 -0.5 0  -0.2499999999993066 -0.5 0  -0.2599999999993342 -0.5 0  -0.269999999999362 -0.5 0  -0.2799999999993897 -0.5 0  -0.2899999999994175 -0.5 0  -0.2999999999994452 -0.5 0  -0.3099999999994729 -0.5 0  -0.3199999999995007 -0.5 0  -0.3299999999995284 -0.5 0  -0.3399999999995562 -0.5 0  -0.3499999999995839 -0.5 0  -0.3599999999996116 -0.5 0  -0.3699999999996393 -0.5 0  -0.379999999999667 -0.5 0  -0.3899999999996949 -0.5 0  -0.3999999999997226 -0.5 0  -0.4099999999997503 -0.5 0  -0.419999999999778 -0.5 0  -0.4299999999998058 -0.5 0  -0.4399999999998336 -0.5 0  -0.4499999999998613 -0.5 0  -0.4599999999998891 -0.5 0  -0.4699999999999167 -0.5 0  -0.4799999999999445 -0.5 0  -0.4899999999999722 -0.5 0  -0.5 -0.4900000000000277 0  -0.5 -0.4800000000000555 0  -0.5 -0.4700000000000832 0  -0.5 -0.4600000000001109 0  -0.5 -0.4500000000001387 0  -0.5 -0.4400000000001664 0  -0.5 -0.4300000000001942 0  -0.5 -0.4200000000002219 0  -0.5 -0.4100000000002497 0  -0.5 -0.4000000000002774 0  -0.5 -0.3900000000003052 0  -0.5 -0.3800000000003328 0  -0.5 -0.3700000000003606 0  -0.5 -0.3600000000003883 0  -0.5 -0.3500000000004161 0  -0.5 -0.3400000000004438 0  -0.5 -0.3300000000004716 0  -0.5 -0.3200000000004993 0  -0.5 -0.3100000000005271 0  -0.5 -0.3000000000005548 0  -0.5 -0.2900000000005825 0  -0.5 -0.2800000000006103 0  -0.5 -0.2700000000006381 0  -0.5 -0.2600000000006658 0  -0.5 -0.2500000000006935 0  -0.5 -0.2400000000007212 0  -0.5 -0.230000000000749 0  -0.5 -0.2200000000007767 0  -0.5 -0.2100000000008044 0  -0.5 -0.2000000000008322 0  -0.5 -0.19000000000086 0  -0.5 -0.1800000000008877 0  -0.5 -0.1700000000009154 0  -0.5 -0.1600000000009431 0  -0.5 -0.1500000000009709 0  -0.5 -0.1400000000009986 0  -0.5 -0.1300000000010264 0  -0.5 -0.1200000000010541 0  -0.5 -0.1100000000010818 0  -0.5 -0.1000000000011096 0  -0.5 -0.09000000000113734 0  -0.5 -0.08000000000116503 0  -0.5 -0.07000000000119283 0  -0.5 -0.06000000000122058 0  -0.5 -0.05000000000124827 0  -0.5 -0.04000000000127607 0  -0.5 -0.03000000000130376 0  -0.5 -0.02000000000133151 0  -0.5 -0.01000000000135925 0  -0.5 -1.376121439022882e-12 0  -0.5 0.009999999998640763 0  -0.5 0.01999999999866864 0  -0.5 0.02999999999869629 0  -0.5 0.03999999999872406 0  -0.5 0.04999999999875182 0  -0.5 0.05999999999877947 0  -0.5 0.06999999999880724 0  -0.5 0.079999999998835 0  -0.5 0.08999999999886266 0  -0.5 0.09999999999889042
[...]
<PointData  Vectors="f_27-0"> 
<DataArray  type="Float64"  Name="f_27-0"  NumberOfComponents="3" format="ascii">1.6977905766690691e-03 4.9309376718659724e-02 0.0000000000000000e+00  -2.3331359153030201e-03 4.8977669456954691e-02 0.0000000000000000e+00  -5.2339101926280967e-04 3.7529372380925005e-02 0.0000000000000000e+00  6.1964268238472587e-04 3.7429029732245343e-02 0.0000000000000000e+00  -1.7301139392702505e-03 6.5146013072896452e-03 0.0000000000000000e+00  1.7532097883832588e-03 6.4583086349065920e-03 0.0000000000000000e+00  -8.1998007461270143e-04 6.1637218644642845e-03 0.0000000000000000e+00  8.1665682762227336e-04 6.1946828450721546e-03 0.0000000000000000e+00  2.9949186618324942e-03 4.8547990208169231e-02 0.0000000000000000e+00  4.2468172129323193e-03 4.7704201663901886e-02 0.0000000000000000e+00  5.4467526001097328e-03 4.6783463139346441e-02 0.0000000000000000e+00  6.5911887583145140e-03 4.5790235832311045e-02 0.0000000000000000e+00  7.6739396054233073e-03 4.4731463955552261e-02 0.0000000000000000e+00  8.6927712864653083e-03 4.3611624172187224e-02 0.0000000000000000e+00  9.6425384671135518e-03 4.2439482048459536e-02 0.0000000000000000e+00  1.0522285337239303e-02 4.1219726392291239e-02 0.0000000000000000e+00  1.1329197706104155e-02 3.9959631527189003e-02 0.0000000000000000e+00  1.2060401849092413e-02 3.8667308886052354e-02 0.0000000000000000e+00  1.2716859998694562e-02 3.7348950375344407e-02 0.0000000000000000e+00  1.3297743074184187e-02 3.6010135634855493e-02 0.0000000000000000e+00  1.3803151600577414e-02 3.4658379402328340e-02 0.0000000000000000e+00  1.4234573091460654e-02 3.3298452781191548e-02 0.0000000000000000e+00  1.4591390507886041e-02 3.1939197161893744e-02 0.0000000000000000e+00  1.4876945847414199e-02 3.0583875655150802e-02 0.0000000000000000e+00  1.5092622396498065e-02 2.9237767743645414e-02 0.0000000000000000e+00  1.5240057049996893e-02 2.7907155677978246e-02 0.0000000000000000e+00  1.5322448757899763e-02 2.6596350931804492e-02 0.0000000000000000e+00  1.5342509560469036e-02 2.5308081137792857e-02 0.0000000000000000e+00  1.5302521632219299e-02 2.4047175381282860e-02 0.0000000000000000e+00  1.5206011739426333e-02 2.2816059903443865e-02 0.0000000000000000e+00  1.5055876074715646e-02 2.1617556888891842e-02 0.0000000000000000e+00  1.4854770601616881e-02 2.0456369297581215e-02 0.0000000000000000e+00  1.4606037950447407e-02 1.9332564220024353e-02 0.0000000000000000e+00  1.4313052034776171e-02 1.8248568432563093e-02 0.0000000000000000e+00  1.3978281502488898e-02 1.7205818271532797e-02 0.0000000000000000e+00  1.3604838050124477e-02 1.6206728792026483e-02 0.0000000000000000e+00  1.3195783451201166e-02 1.5250274406098135e-02 0.0000000000000000e+00  1.2753871290982892e-02 1.4338402809267925e-02 0.0000000000000000e+00  1.2281413641639670e-02 1.3471863813852609e-02 0.0000000000000000e+00  1.1781081039781148e-02 1.2650962874256324e-02 0.0000000000000000e+00  1.1255360631229967e-02 1.1876311499820475e-02 0.0000000000000000e+00  1.0706607103985489e-02 1.1147137773352408e-02 0.0000000000000000e+00  1.0136659215018875e-02 1.0463780022071201e-02 0.0000000000000000e+00  9.5476629254087723e-03 9.8257647877034830e-03 0.0000000000000000e+00  8.9417332050551329e-03 9.2338461529916527e-03 0.0000000000000000e+00  8.3203312827520720e-03 8.6870607458396087e-03 0.0000000000000000e+00  7.6853084424066314e-03 8.1849690298574692e-03 0.0000000000000000e+00  7.0381676482616819e-03 7.7283040156885365e-03 0.0000000000000000e+00  6.3804379434134091e-03 7.3156812527979537e-03 0.0000000000000000e+00  5.7135191914085117e-03 6.9462594618206475e-03 0.0000000000000000e+00  5.0384243262835268e-03 6.6216266404596387e-03 0.0000000000000000e+00  4.3565470075440909e-03 6.3400969445668951e-03 0.0000000000000000e+00  3.6689455170941312e-03 6.1016678909326218e-03 0.0000000000000000e+00  2.9764634164933597e-03 5.9058021195336746e-03 0.0000000000000000e+00  2.2807152372766636e-03 5.7530978369023950e-03 0.0000000000000000e+00  1.5819750332959443e-03 5.6423595130978312e-03 0.0000000000000000e+00  8.8183551118130863e-04 5.5734004034431843e-03 0.0000000000000000e+00  1.8063247738286692e-04 5.5470956898755501e-03 0.0000000000000000e+00  -5.2044512635017579e-04 5.5629727155245452e-03 0.0000000000000000e+00  -1.2203619166572814e-03 5.6201610211230497e-03 0.0000000000000000e+00  -1.9185730200538599e-03 5.7192383626956779e-03 0.0000000000000000e+00  -2.6138145325740486e-03 5.8607671635418036e-03 0.0000000000000000e+00  -3.3053961837518509e-03 6.0449902629202967e-03 0.0000000000000000e+00  -3.9920351092445168e-03 6.2715557467690466e-03 0.0000000000000000e+00  -4.6729986092061242e-03 6.5409262069405002e-03 0.0000000000000000e+00  -5.3470071650486535e-03 6.8528754832462560e-03 0.0000000000000000e+00  -6.0131719229088920e-03 7.2081190298359712e-03 0.0000000000000000e+00  -6.6701807602348321e-03 7.6063513901630728e-03 0.0000000000000000e+00  -7.3165114298331382e-03 8.0491469737331064e-03 0.0000000000000000e+00  -7.9513534805892728e-03 8.5354677676295915e-03 0.0000000000000000e+00  -8.5725468308713495e-03 9.0660556326789925e-03 0.0000000000000000e+00  -9.1789639765432248e-03 9.6412313354141532e-03 0.0000000000000000e+00  -9.7689499547730582e-03 1.0260862080811423e-02 0.0000000000000000e+00  -1.0340313964859045e-02 1.0925237029019251e-02 0.0000000000000000e+00  -1.0891929885231610e-02 1.1634989443380461e-02 0.0000000000000000e+00  -1.1420660758750898e-02 1.2390017555553528e-02 0.0000000000000000e+00  -1.1925710169020949e-02 1.3189852756654324e-02 0.0000000000000000e+00  -1.2403550019173556e-02 1.4034432661661839e-02 0.0000000000000000e+00  -1.2852649430541652e-02 1.4924190528051070e-02 0.0000000000000000e+00  -1.3270430998866604e-02 1.5856645815984814e-02 0.0000000000000000e+00  -1.3654024953003606e-02 1.6831950451379491e-02 0.0000000000000000e+00  -1.4001215949142165e-02 1.7850297797096785e-02 0.0000000000000000e+00  -1.4308475405241128e-02 1.8909580702252692e-02 0.0000000000000000e+00  -1.4574023394728764e-02 2.0008559686884829e-02 0.0000000000000000e+00  -1.4793668988093119e-02 2.1146470553069126e-02 0.0000000000000000e+00  -1.4965552953942108e-02 2.2318922083442848e-02 0.0000000000000000e+00  -1.5086297112626233e-02 2.3525890210476425e-02 0.0000000000000000e+00  -1.5152785977844785e-02 2.4764158491530915e-02 0.0000000000000000e+00  -1.5162485565576554e-02 2.6030582028927194e-02 0.0000000000000000e+00  -1.5112119766145798e-02 2.7321510117672126e-02 0.0000000000000000e+00  -1.4999710991880759e-02 2.8633798445256122e-02 0.0000000000000000e+00  -1.4821440721855674e-02 2.9963896170253940e-02 0.0000000000000000e+00  -1.4576405526862884e-02 3.1305211868775946e-02 0.0000000000000000e+00  -1.4261811637347067e-02 3.2654417199517193e-02 0.0000000000000000e+00  -1.3875530423146407e-02 3.4006975908328026e-02 0.0000000000000000e+00  -1.3416395408521605e-02 3.5355808498625366e-02 0.0000000000000000e+00  -1.2883522625030858e-02 3.6695283324490381e-02 0.0000000000000000e+00  -1.2276077383362102e-02 3.8019041898527547e-02 0.0000000000000000e+00  -1.1594212178290486e-02 3.9321305284168467e-02 0.0000000000000000e+00  -1.0836864252661329e-02 4.0596325633542145e-02 0.0000000000000000e+00  -1.0006473935976007e-02 4.1835816438625474e-02 0.0000000000000000e+00  -9.1039912941579329e-03 4.3033295853379852e-02 0.0000000000000000e+00  -8.1306492045039730e-03 4.4183432610403334e-02 0.0000000000000000e+00  -7.0912681428124923e-03 4.5276879420238926e-02 0.0000000000000000e+00  -5.9867491318990936e-03 4.6309794828533278e-02 0.0000000000000000e+00  -4.8223910790735304e-03 4.7274663607391521e-02 0.0000000000000000e+00  -3.6029422477703325e-03 4.8165638487496637e-02 0.0000000000000000e+00  -2.6621658277656982e-03 5.0305037867982204e-02 0.0000000000000000e+00  -3.0161960003665480e-03 5.1701164368398278e-02 0.0000000000000000e+00  -3.3951199409090671e-03 5.3173362567244239e-02 0.0000000000000000e+00  -3.8022093478563587e-03 5.4723860646773620e-02 0.0000000000000000e+00  -4.2385443275941041e-03 5.6360517231648519e-02 0.0000000000000000e+00  -4.7097057048396456e-03 5.8087023960174893e-02 0.0000000000000000e+00  -5.2129246926394283e-03 5.9910268725041148e-02 0.0000000000000000e+00  -5.7577135855401739e-03 6.1837554913953083e-02 0.0000000000000000e+00  -6.3461412843907874e-03 6.3874115616930016e-02 0.0000000000000000e+00  -6.9787987299684577e-03 6.6029529161859904e-02 0.0000000000000000e+00  -7.6635488501519532e-03 6.8310613040665311e-02 0.0000000000000000e+00  -8.4079635133112954e-03 7.0723624616595870e-02 0.0000000000000000e+00  -9.2170225390069381e-03 7.3278614565204098e-02 0.0000000000000000e+00  -1.0100486380969389e-02 7.5977460112425677e-02 0.0000000000000000e+00  -1.1062547966804965e-02 7.8830613322258145e-02 0.0000000000000000e+00  -1.2112889236484242e-02 8.1841988434792845e-02 0.0000000000000000e+00  -1.3263137373391831e-02 8.5007184461402999e-02 0.0000000000000000e+00  -1.4511149288968612e-02 8.8331350064906070e-02 0.0000000000000000e+00  -1.5855443500014700e-02 9.1797820423189944e-02 0.0000000000000000e+00  -1.7282402795728371e-02 9.5386080438281978e-02 0.0000000000000000e+00  -1.8743548549673767e-02 9.9070644636563940e-02 0.0000000000000000e+00  -2.0161989748163221e-02 1.0279825339564654e-01 0.0000000000000000e+00  -2.1383433137916474e-02 1.0650945699416667e-01 0.0000000000000000e+00  -2.2182382119151821e-02 1.1012335240724162e-01 0.0000000000000000e+00  -2.2201405935753833e-02 1.1353453636919819e-01 0.0000000000000000e+00  -2.0950554159957235e-02 1.1664389241226024e-01 0.0000000000000000e+00  -1.7838478288991929e-02 1.1933130808805552e-01 0.0000000000000000e+00  -1.2233344266048763e-02 1.2152299774069940e-01 0.0000000000000000e+00  -3.6593229424395032e-03 1.2318024159349858e-01 0.0000000000000000e+00  7.9630822843684713e-03 1.2426512108993698e-01 0.0000000000000000e+00  2.2029919680803155e-02 1.2478747848505629e-01 0.0000000000000000e+00  3.7181215965124637e-02 1.2463552670710479e-01 0.0000000000000000e+00  5.1317708263404198e-02 1.2361037213654945e-01 0.0000000000000000e+00  6.1737957218099694e-02 1.2138491840489474e-01 0.0000000000000000e+00  6.5357372808962449e-02 1.1759906878931864e-01 0.0000000000000000e+00  5.8730380842685663e-02 1.1246786032417029e-01 0.0000000000000000e+00  3.9784281243080075e-02 1.0693247282846249e-01 0.0000000000000000e+00  9.7132608805968728e-03 1.0347471480865797e-01 0.0000000000000000e+00  -2.3651975190544919e-02 1.0472966800306860e-01 0.0000000000000000e+00  -4.9016031365196569e-02 1.1258506459970324e-01 0.0000000000000000e+00  -5.8429917626097116e-02 1.2608412784038964e-01 0.0000000000000000e+00  -5.4477336068205651e-02 1.4129781291589155e-01 0.0000000000000000e+00  -4.6070419577808844e-02 1.5397366431953380e-01 0.0000000000000000e+00  -3.8070013574418936e-02 1.6311331562404865e-01 0.0000000000000000e+00  -3.1276922725555607e-02 1.6912516583729731e-01 0.0000000000000000e+00  -2.5379566156521899e-02 1.7278668208190864e-01 0.0000000000000000e+00  -2.0138393774131794e-02 1.7458008249244172e-01 0.0000000000000000e+00  -1.5515637168316764e-02 1.7491331787146777e-01 0.0000000000000000e+00  -1.1369262428135624e-02 1.7407751385744460e-01 0.0000000000000000e+00  -7.6753371997001843e-03 1.7228571893800687e-01 0.0000000000000000e+00  -4.4076867904728817e-03 1.6970470603971274e-01 0.0000000000000000e+00  -1.5524706060780959e-03 1.6650287934975688e-01 0.0000000000000000e+00  9.1918123925251757e-04 1.6281261871807576e-01 0.0000000000000000e+00  3.0476370322178765e-03 1.5873709408379280e-01 0.0000000000000000e+00  4.8302840069093019e-03 1.5437419048219470e-01 0.0000000000000000e+00  6.3088909751794382e-03 1.4980791365146626e-01 0.0000000000000000e+00  7.4988149041354032e-03 1.4511691985517419e-01 0.0000000000000000e+00  8.4230300559702698e-03 1.4036867397957278e-01 0.0000000000000000e+00  9.1194127429601798e-03 1.3560632342688664e-01 0.0000000000000000e+00  9.6090446799662610e-03 1.3088151217128610e-01 0.0000000000000000e+00  9.9265044684828923e-03 1.2622094650261997e-01 0.0000000000000000e+00  1.0090225959681091e-02 1.2166072958767982e-01 0.0000000000000000e+00  1.0127495397221898e-02 1.1721961635913783e-01 0.0000000000000000e+00  1.0057193041698028e-02 1.1291410579635891e-01 0.0000000000000000e+00  9.8992288603468592e-03 1.0875617618212328e-01 0.0000000000000000e+00  9.6715309386799959e-03 1.0475037534730534e-01 0.0000000000000000e+00  9.3887999981428129e-03 1.0090731020879413e-01 0.0000000000000000e+00  9.0659203665988536e-03 9.7217427216367350e-02 0.0000000000000000e+00  8.7100175131927336e-03 9.3692518053823462e-02 0.0000000000000000e+00  8.3323022846818647e-03 9.0319502775027469e-02 0.0000000000000000e+00  7.9381105563185970e-03 8.7100946250503214e-02 0.0000000000000000e+00  7.5310197120849950e-03 8.4031804374280317e-02 0.0000000000000000e+00  7.1180944296235695e-03 8.1108343637613600e-02 0.0000000000000000e+00  6.7058849415121561e-03 7.8321199997789040e-02 0.0000000000000000e+00  6.2963564284233432e-03 7.5664399293015563e-02 0.0000000000000000e+00  5.8898877045969111e-03 7.3136976361210665e-02 0.0000000000000000e+00  5.4929241724784609e-03 7.0726549655929463e-02 0.0000000000000000e+00  5.1001853163822426e-03 6.8432199986845174e-02 0.0000000000000000e+00  4.7186107151191712e-03 6.6245030838539984e-02 0.0000000000000000e+00  4.3480188744214965e-03 6.4161498047843199e-02 0.0000000000000000e+00  3.9879558900240177e-03 6.2175791924412915e-02 0.0000000000000000e+00  3.6395023233187127e-03 6.0281742587427592e-02 0.0000000000000000e+00  3.3035080424521994e-03 5.8476422886608537e-02 0.0000000000000000e+00  2.9805200758529255e-03 5.6752494160019928e-02 0.0000000000000000e+00  2.6688889774650242e-03 5.5108367937311400e-02 0.0000000000000000e+00  2.3704991614280084e-03 5.3537434275886780e-02 0.0000000000000000e+00  2.0856975441125775e-03 5.2037604766480283e-02 0.0000000000000000e+00  1.8128697708570942e-03 5.0603955660444185e-02 0.0000000000000000e+00  1.5527508712114551e-03 4.9234117755388072e-02 0.0000000000000000e+00  1.3045574240784326e-03 4.7923770670855258e-02 0.0000000000000000e+00  1.0693548208599382e-03 4.6670879613554393e-02 0.0000000000000000e+00  8.4681745029225805e-04 4.5471428460421813e-02 0.0000000000000000e+00  6.3580281138827426e-04 4.4323727783152723e-02 0.0000000000000000e+00  4.3613871901748415e-04 4.3224449331603777e-02 0.0000000000000000e+00  2.4899153457639194e-04 4.2171166438881642e-02 0.0000000000000000e+00  7.2644074236806282e-05 4.1162559753143181e-02 0.0000000000000000e+00  -9.2143316110969149e-05 4.0195604271768173e-02 0.0000000000000000e+00  -2.4556333323113428e-04 3.9268927049174757e-02 0.0000000000000000e+00  -3.8924122974504013e-04 3.8380798695081993e-02 0.0000000000000000e+00  2.9885098442963500e-04 3.7043459579609680e-02 0.0000000000000000e+00  1.0957766197906022e-03 3.6511966052548771e-02 0.0000000000000000e+00  1.8656275870380886e-03 3.5936471183947181e-02 0.0000000000000000e+00  2.6052898011385199e-03 3.5319794317291653e-02 0.0000000000000000e+00  3.3132340372667829e-03 3.4664014387241052e-02 0.0000000000000000e+00  3.9867712430793146e-03 3.3972643651949096e-02 0.0000000000000000e+00  4.6248359110963042e-03 3.3247543072044201e-02 0.0000000000000000e+00  5.2250607999088320e-03 3.2492313264472619e-02 0.0000000000000000e+00  5.7863037002429413e-03 3.1709929126818789e-02 0.0000000000000000e+00  6.3079821169400871e-03 3.0903227152798755e-02 0.0000000000000000e+00  6.7884978798603756e-03 3.0075492789636154e-02 0.0000000000000000e+00  7.2271950209879367e-03 2.9230504297178293e-02 0.0000000000000000e+00  7.6236345613464058e-03 2.8370948878761751e-02 0.0000000000000000e+00  7.9770886604293729e-03 2.7500855395311042e-02 0.0000000000000000e+00  8.2883325188592722e-03 2.6622205873611360e-02 0.0000000000000000e+00  8.5567082891744549e-03 2.5739086103149466e-02 0.0000000000000000e+00  8.7826756275323839e-03 2.4854719430923058e-02 0.0000000000000000e+00  8.9668886034471752e-03 2.3971638320723382e-02 0.0000000000000000e+00  9.1098982195710262e-03 2.3092564654006793e-02 0.0000000000000000e+00  9.2121774850930788e-03 2.2221075309629780e-02 0.0000000000000000e+00  9.2749758824562031e-03 2.1359182518328260e-02 0.0000000000000000e+00  9.2991031453605114e-03 2.0509846524935392e-02 0.0000000000000000e+00  9.2856277333189397e-03 1.9675472075285593e-02 0.0000000000000000e+00  9.2362905687019374e-03 1.8857446486238303e-02 0.0000000000000000e+00  9.1519905983565887e-03 1.8058454211623672e-02 0.0000000000000000e+00  9.0341245321155558e-03 1.7280280900261236e-02 0.0000000000000000e+00  8.8843020319911981e-03 1.6524793124895826e-02 0.0000000000000000e+00  8.7041070644691531e-03 1.5793040317683273e-02 0.0000000000000000e+00  8.4948120371317448e-03 1.5087496837962212e-02 0.0000000000000000e+00  8.2578415545605140e-03 1.4408835192782415e-02 0.0000000000000000e+00  7.9950491047232689e-03 1.3758302958846688e-02 0.0000000000000000e+00  7.7077666824075389e-03 1.3136830951989106e-02 0.0000000000000000e+00  7.3977194265991012e-03 1.2545143854658805e-02 0.0000000000000000e+00  7.0661738175585263e-03 1.1984623673568961e-02 0.0000000000000000e+00  6.7148250186318649e-03 1.1455703027235758e-02 0.0000000000000000e+00  6.3451233248272036e-03 1.0959354978108354e-02 0.0000000000000000e+00  5.9583078612720644e-03 1.0495288880857569e-02 0.0000000000000000e+00  5.5560636592746253e-03 1.0064704257811823e-02 0.0000000000000000e+00  5.1394836157456344e-03 9.6677175403746696e-03 0.0000000000000000e+00  4.7102437881713574e-03 9.3042735547606177e-03 0.0000000000000000e+00  4.2694095752409374e-03 8.9752824139813815e-03 0.0000000000000000e+00  3.8181840737000167e-03 8.6813057326346164e-03 0.0000000000000000e+00  3.3580757294067666e-03 8.4213318862278279e-03 0.0000000000000000e+00  2.8900559441248676e-03 8.1961768152852259e-03 0.0000000000000000e+00  2.4154118583216799e-03 8.0057728878456299e-03 0.0000000000000000e+00  1.9354019155646733e-03 7.8503059538364874e-03 0.0000000000000000e+00  1.4509300877719280e-03 7.7293888624131325e-03 0.0000000000000000e+00  9.6354018457265743e-04 7.6438065715264767e-03 0.0000000000000000e+00  4.7387838106305709e-04 7.5935274559588281e-03 0.0000000000000000e+00  -1.6553309053542830e-05 7.5779057576480565e-03 0.0000000000000000e+00  -5.0685448871799863e-04 7.5972602007477966e-03 0.0000000000000000e+00  -9.9598771490120685e-04 7.6520209704495192e-03 0.0000000000000000e+00  -1.4826093288176768e-03 7.7418930133141368e-03 0.0000000000000000e+00  -1.9657742341512765e-03 7.8664876403603395e-03 0.0000000000000000e+00  -2.4442515839834008e-03 8.0257537254266476e-03 0.0000000000000000e+00  -2.9171221352281918e-03 8.2198921340904119e-03 0.0000000000000000e+00  -3.3829448365787110e-03 8.4486173728189895e-03 0.0000000000000000e+00  -3.8407432789545112e-03 8.7122038170987376e-03 0.0000000000000000e+00  -4.2891742919808247e-03 9.0100695525433434e-03 0.0000000000000000e+00  -4.7269583825055271e-03 9.3424719024303420e-03 0.0000000000000000e+00  -5.1531218157606822e-03 9.7083299666664291e-03 0.0000000000000000e+00  -5.5659362234882544e-03 1.0108232928237600e-02 0.0000000000000000e+00  -5.9644840039911719e-03 1.0541453926082489e-02 0.0000000000000000e+00  -6.3471604257679358e-03 1.1007654607790187e-02 0.0000000000000000e+00  -6.7125408239224714e-03 1.1506386281810438e-02 0.0000000000000000e+00  -7.0593432443298108e-03 1.2037152564860199e-02 0.0000000000000000e+00  -7.3859196359090098e-03 1.2599126279818742e-02 0.0000000000000000e+00  -7.6912435121672023e-03 1.3191316464459346e-02 0.0000000000000000e+00  -7.9731182794208107e-03 1.3813522010339318e-02 0.0000000000000000e+00  -8.2307704027672762e-03 1.4464344668973103e-02 0.0000000000000000e+00  -8.4622708960176499e-03 1.5142633590425459e-02 0.0000000000000000e+00  -8.6660590634599979e-03 1.5848030138625228e-02 0.0000000000000000e+00  -8.8407571597674019e-03 1.6579006291019178e-02 0.0000000000000000e+00  -8.9849555648743862e-03 1.7333164637524021e-02 0.0000000000000000e+00  -9.0973476856794494e-03 1.8109585841323321e-02 0.0000000000000000e+00  -9.1758816299437381e-03 1.8906301355798152e-02 0.0000000000000000e+00  -9.2202422854699359e-0