<?xml version="1.0"?>
<VTKFile type="UnstructuredGrid"  version="0.1"  >
<UnstructuredGrid>
<Piece  NumberOfPoints="16275" NumberOfCells="32468">
<Points>
<DataArray  type="Float64"  NumberOfComponents="3"  format="ascii">-0.5 0.5 0  0.5 0.5 0  0.5 -0.5 0  -0.5 -0.5 0  -1 1 0  1 1 0  1 -1 0  -1 -1 0  -0.4900000000000277 0.5 0  -0.4800000000000555 0.5 0  -0.4700000000000832 0.5 0  -0.4600000000001109 0.5 0  -0.4500000000001387 0.5 0  -0.4400000000001664 0.5 0  -0.4300000000001942 0.5 0  -0.4200000000002219 0.5 0  -0.4100000000002497 0.5 0  -0.4000000000002774 0.5 0  -0.3900000000003052 0.5 0  -0.3800000000003328 0.5 0  -0.3700000000003606 0.5 0  -0.3600000000003883 0.5 0  -0.3500000000004161 0.5 0  -0.3400000000004438 0.5 0  -0.3300000000004716 0.5 0  -0.3200000000004993 0.5 0  -0.3100000000005271 0.5 0  -0.3000000000005548 0.5 0  -0.2900000000005825 0.5 0  -0.2800000000006103 0.5 0  -0.2700000000006381 0.5 0  -0.2600000000006658 0.5 0  -0.2500000000006935 0.5 0  -0.2400000000007212 0.5 0  -0.230000000000749 0.5 0  -0.2200000000007767 0.5 0  -0.2100000000008044 0.5 0  -0.2000000000008322 0.5 0  -0.19000000000086 0.5 0  -0.1800000000008877 0.5 0  -0.1700000000009154 0.5 0  -0.1600000000009431 0.5 0  -0.1500000000009709 0.5 0  -0.1400000000009986 0.5 0  -0.1300000000010264 0.5 0  -0.1200000000010541 0.5 0  -0.1100000000010818 0.5 0  -0.1000000000011096 0.5 0  -0.09000000000113734 0.5 0  -0.08000000000116503 0.5 0  -0.07000000000119283 0.5 0  -0.06000000000122058 0.5 0  -0.05000000000124827 0.5 0  -0.04000000000127607 0.5 0  -0.03000000000130376 0.5 0  -0.02000000000133151 0.5 0  -0.01000000000135925 0.5 0  -1.376121439022882e-12 0.5 0  0.009999999998640763 0.5 0  0.01999999999866864 0.5 0  0.02999999999869629 0.5 0  0.03999999999872406 0.5 0  0.04999999999875182 0.5 0  0.05999999999877947 0.5 0  0.06999999999880724 0.5 0  0.079999999998835 0.5 0  0.08999999999886266 0.5 0  0.09999999999889042 0.5 0  0.1099999999989182 0.5 0  0.1199999999989459 0.5 0  0.1299999999989737 0.5 0  0.1399999999990014 0.5 0  0.1499999999990291 0.5 0  0.1599999999990568 0.5 0  0.1699999999990847 0.5 0  0.1799999999991124 0.5 0  0.1899999999991401 0.5 0  0.1999999999991678 0.5 0  0.2099999999991955 0.5 0  0.2199999999992234 0.5 0  0.2299999999992511 0.5 0  0.2399999999992788 0.5 0  0.2499999999993066 0.5 0  0.2599999999993342 0.5 0  0.269999999999362 0.5 0  0.2799999999993897 0.5 0  0.2899999999994175 0.5 0  0.2999999999994452 0.5 0  0.3099999999994729 0.5 0  0.3199999999995007 0.5 0  0.3299999999995284 0.5 0  0.3399999999995562 0.5 0  0.3499999999995839 0.5 0  0.3599999999996116 0.5 0  0.3699999999996393 0.5 0  0.379999999999667 0.5 0  0.3899999999996949 0.5 0  0.3999999999997226 0.5 0  0.4099999999997503 0.5 0  0.419999999999778 0.5 0  0.4299999999998058 0.5 0  0.4399999999998336 0.5 0  0.4499999999998613 0.5 0  0.4599999999998891 0.5 0  0.4699999999999167 0.5 0  0.4799999999999445 0.5 0  0.4899999999999722 0.5 0  0.5 0.4900000000000277 0  0.5 0.4800000000000555 0  0.5 0.4700000000000832 0  0.5 0.4600000000001109 0  0.5 0.4500000000001387 0  0.5 0.4400000000001664 0  0.5 0.4300000000001942 0  0.5 0.4200000000002219 0  0.5 0.4100000000002497 0  0.5 0.4000000000002774 0  0.5 0.3900000000003052 0  0.5 0.3800000000003328 0  0.5 0.3700000000003606 0  0.5 0.3600000000003883 0  0.5 0.3500000000004161 0  0.5 0.3400000000004438 0  0.5 0.3300000000004716 0  0.5 0.3200000000004993 0  0.5 0.3100000000005271 0  0.5 0.3000000000005548 0  0.5 0.2900000000005825 0  0.5 0.2800000000006103 0  0.5 0.2700000000006381 0  0.5 0.2600000000006658 0  0.5 0.2500000000006935 0  0.5 0.2400000000007212 0  0.5 0.230000000000749 0  0.5 0.2200000000007767 0  0.5 0.2100000000008044 0  0.5 0.2000000000008322 0  0.5 0.19000000000086 0  0.5 0.1800000000008877 0  0.5 0.1700000000009154 0  0.5 0.1600000000009431 0  0.5 0.1500000000009709 0  0.5 0.1400000000009986 0  0.5 0.1300000000010264 0  0.5 0.1200000000010541 0  0.5 0.1100000000010818 0  0.5 0.1000000000011096 0  0.5 0.09000000000113734 0  0.5 0.08000000000116503 0  0.5 0.07000000000119283 0  0.5 0.06000000000122058 0  0.5 0.05000000000124827 0  0.5 0.04000000000127607 0  0.5 0.03000000000130376 0  0.5 0.02000000000133151 0  0.5 0.01000000000135925 0  0.5 1.376121439022882e-12 0  0.5 -0.009999999998640763 0  0.5 -0.01999999999866864 0  0.5 -0.02999999999869629 0  0.5 -0.03999999999872406 0  0.5 -0.04999999999875182 0  0.5 -0.05999999999877947 0  0.5 -0.06999999999880724 0  0.5 -0.079999999998835 0  0.5 -0.08999999999886266 0  0.5 -0.09999999999889042 0  0.5 -0.1099999999989182 0  0.5 -0.1199999999989459 0  0.5 -0.1299999999989737 0  0.5 -0.1399999999990014 0  0.5 -0.1499999999990291 0  0.5 -0.1599999999990568 0  0.5 -0.1699999999990847 0  0.5 -0.1799999999991124 0  0.5 -0.1899999999991401 0  0.5 -0.1999999999991678 0  0.5 -0.2099999999991955 0  0.5 -0.2199999999992234 0  0.5 -0.2299999999992511 0  0.5 -0.2399999999992788 0  0.5 -0.2499999999993066 0  0.5 -0.2599999999993342 0  0.5 -0.269999999999362 0  0.5 -0.2799999999993897 0  0.5 -0.2899999999994175 0  0.5 -0.2999999999994452 0  0.5 -0.3099999999994729 0  0.5 -0.3199999999995007 0  0.5 -0.3299999999995284 0  0.5 -0.3399999999995562 0  0.5 -0.3499999999995839 0  0.5 -0.3599999999996116 0  0.5 -0.3699999999996393 0  0.5 -0.379999999999667 0  0.5 -0.3899999999996949 0  0.5 -0.3999999999997226 0  0.5 -0.4099999999997503 0  0.5 -0.419999999999778 0  0.5 -0.4299999999998058 0  0.5 -0.4399999999998336 0  0.5 -0.4499999999998613 0  0.5 -0.4599999999998891 0  0.5 -0.4699999999999167 0  0.5 -0.4799999999999445 0  0.5 -0.4899999999999722 0  0.4900000000000277 -0.5 0  0.4800000000000555 -0.5 0  0.4700000000000832 -0.5 0  0.4600000000001109 -0.5 0  0.4500000000001387 -0.5 0  0.4400000000001664 -0.5 0  0.4300000000001942 -0.5 0  0.4200000000002219 -0.5 0  0.4100000000002497 -0.5 0  0.4000000000002774 -0.5 0  0.3900000000003052 -0.5 0  0.3800000000003328 -0.5 0  0.3700000000003606 -0.5 0  0.3600000000003883 -0.5 0  0.3500000000004161 -0.5 0  0.3400000000004438 -0.5 0  0.3300000000004716 -0.5 0  0.3200000000004993 -0.5 0  0.3100000000005271 -0.5 0  0.3000000000005548 -0.5 0  0.2900000000005825 -0.5 0  0.2800000000006103 -0.5 0  0.2700000000006381 -0.5 0  0.2600000000006658 -0.5 0  0.2500000000006935 -0.5 0  0.2400000000007212 -0.5 0  0.230000000000749 -0.5 0  0.2200000000007767 -0.5 0  0.2100000000008044 -0.5 0  0.2000000000008322 -0.5 0  0.19000000000086 -0.5 0  0.1800000000008877 -0.5 0  0.1700000000009154 -0.5 0  0.1600000000009431 -0.5 0  0.1500000000009709 -0.5 0  0.1400000000009986 -0.5 0  0.1300000000010264 -0.5 0  0.1200000000010541 -0.5 0  0.1100000000010818 -0.5 0  0.1000000000011096 -0.5 0  0.09000000000113734 -0.5 0  0.08000000000116503 -0.5 0  0.07000000000119283 -0.5 0  0.06000000000122058 -0.5 0  0.05000000000124827 -0.5 0  0.04000000000127607 -0.5 0  0.03000000000130376 -0.5 0  0.02000000000133151 -0.5 0  0.01000000000135925 -0.5 0  1.376121439022882e-12 -0.5 0  -0.009999999998640763 -0.5 0  -0.01999999999866864 -0.5 0  -0.02999999999869629 -0.5 0  -0.03999999999872406 -0.5 0  -0.04999999999875182 -0.5 0  -0.05999999999877947 -0.5 0  -0.06999999999880724 -0.5 0  -0.079999999998835 -0.5 0  -0.08999999999886266 -0.5 0  -0.09999999999889042 -0.5 0  -0.1099999999989182 -0.5 0  -0.1199999999989459 -0.5 0  -0.1299999999989737 -0.5 0  -0.1399999999990014 -0.5 0  -0.1499999999990291 -0.5 0  -0.1599999999990568 -0.5 0  -0.1699999999990847 -0.5 0  -0.1799999999991124 -0.5 0  -0.1899999999991401 -0.5 0  -0.1999999999991678 -0.5 0  -0.2099999999991955 -0.5 0  -0.2199999999992234 -0.5 0  -0.2299999999992511 -0.5 0  -0.2399999999992788 -0.5 0  -0.2499999999993066 -0.5 0  -0.2599999999993342 -0.5 0  -0.269999999999362 -0.5 0  -0.2799999999993897 -0.5 0  -0.2899999999994175 -0.5 0  -0.2999999999994452 -0.5 0  -0.3099999999994729 -0.5 0  -0.3199999999995007 -0.5 0  -0.3299999999995284 -0.5 0  -0.3399999999995562 -0.5 0  -0.3499999999995839 -0.5 0  -0.3599999999996116 -0.5 0  -0.3699999999996393 -0.5 0  -0.379999999999667 -0.5 0  -0.3899999999996949 -0.5 0  -0.3999999999997226 -0.5 0  -0.4099999999997503 -0.5 0  -0.419999999999778 -0.5 0  -0.4299999999998058 -0.5 0  -0.4399999999998336 -0.5 0  -0.4499999999998613 -0.5 0  -0.4599999999998891 -0.5 0  -0.4699999999999167 -0.5 0  -0.4799999999999445 -0.5 0  -0.4899999999999722 -0.5 0  -0.5 -0.4900000000000277 0  -0.5 -0.4800000000000555 0  -0.5 -0.4700000000000832 0  -0.5 -0.4600000000001109 0  -0.5 -0.4500000000001387 0  -0.5 -0.4400000000001664 0  -0.5 -0.4300000000001942 0  -0.5 -0.4200000000002219 0  -0.5 -0.4100000000002497 0  -0.5 -0.4000000000002774 0  -0.5 -0.3900000000003052 0  -0.5 -0.3800000000003328 0  -0.5 -0.3700000000003606 0  -0.5 -0.3600000000003883 0  -0.5 -0.3500000000004161 0  -0.5 -0.3400000000004438 0  -0.5 -0.3300000000004716 0  -0.5 -0.3200000000004993 0  -0.5 -0.3100000000005271 0  -0.5 -0.3000000000005548 0  -0.5 -0.2900000000005825 0  -0.5 -0.2800000000006103 0  -0.5 -0.2700000000006381 0  -0.5 -0.2600000000006658 0  -0.5 -0.2500000000006935 0  -0.5 -0.2400000000007212 0  -0.5 -0.230000000000749 0  -0.5 -0.2200000000007767 0  -0.5 -0.2100000000008044 0  -0.5 -0.2000000000008322 0  -0.5 -0.19000000000086 0  -0.5 -0.1800000000008877 0  -0.5 -0.1700000000009154 0  -0.5 -0.1600000000009431 0  -0.5 -0.1500000000009709 0  -0.5 -0.1400000000009986 0  -0.5 -0.1300000000010264 0  -0.5 -0.1200000000010541 0  -0.5 -0.1100000000010818 0  -0.5 -0.1000000000011096 0  -0.5 -0.09000000000113734 0  -0.5 -0.08000000000116503 0  -0.5 -0.07000000000119283 0  -0.5 -0.06000000000122058 0  -0.5 -0.05000000000124827 0  -0.5 -0.04000000000127607 0  -0.5 -0.03000000000130376 0  -0.5 -0.02000000000133151 0  -0.5 -0.01000000000135925 0  -0.5 -1.376121439022882e-12 0  -0.5 0.009999999998640763 0  -0.5 0.01999999999866864 0  -0.5 0.02999999999869629 0  -0.5 0.03999999999872406 0  -0.5 0.04999999999875182 0  -0.5 0.05999999999877947 0  -0.5 0.06999999999880724 0  -0.5 0.079999999998835 0  -0.5 0.08999999999886266 0  -0.5 0.09999999999889042
[...]
<PointData  Vectors="f_27-0"> 
<DataArray  type="Float64"  Name="f_27-0"  NumberOfComponents="3" format="ascii">1.6263498183533055e-03 4.8947282937805855e-02 0.0000000000000000e+00  -2.2370568025325767e-03 4.8641412992609281e-02 0.0000000000000000e+00  -4.7725422156195843e-04 3.7742603523583544e-02 0.0000000000000000e+00  5.7836096352247826e-04 3.7644704804625916e-02 0.0000000000000000e+00  -1.6949065906901044e-03 6.4748385628503264e-03 0.0000000000000000e+00  1.7072523929139872e-03 6.4291525650905347e-03 0.0000000000000000e+00  -8.2697450998289940e-04 6.1600478781685605e-03 0.0000000000000000e+00  8.2259562875166301e-04 6.1886006570623028e-03 0.0000000000000000e+00  2.9065291808503283e-03 4.8195705760959426e-02 0.0000000000000000e+00  4.1423553136250377e-03 4.7363163590310509e-02 0.0000000000000000e+00  5.3272758726786735e-03 4.6454943807070007e-02 0.0000000000000000e+00  6.4578093579008280e-03 4.5475381930950305e-02 0.0000000000000000e+00  7.5279105888688587e-03 4.4431233705085699e-02 0.0000000000000000e+00  8.5353587006671248e-03 4.3326867108105793e-02 0.0000000000000000e+00  9.4751008301643663e-03 4.2170784312896628e-02 0.0000000000000000e+00  1.0346160191137439e-02 4.0967611774207685e-02 0.0000000000000000e+00  1.1145743055542789e-02 3.9724422671012387e-02 0.0000000000000000e+00  1.1870992289139411e-02 3.8449124208152011e-02 0.0000000000000000e+00  1.2522791896556876e-02 3.7147790891971046e-02 0.0000000000000000e+00  1.3100285449933651e-02 3.5825900690129600e-02 0.0000000000000000e+00  1.3603520326505263e-02 3.4490833010665148e-02 0.0000000000000000e+00  1.4033897524648023e-02 3.3147271536418839e-02 0.0000000000000000e+00  1.4390757731090963e-02 3.1803891953775615e-02 0.0000000000000000e+00  1.4677327705668717e-02 3.0463944261728486e-02 0.0000000000000000e+00  1.4894929811140498e-02 2.9132630272970486e-02 0.0000000000000000e+00  1.5045114171465392e-02 2.7816160489909744e-02 0.0000000000000000e+00  1.5130978326767370e-02 2.6518797975156997e-02 0.0000000000000000e+00  1.5155165648851632e-02 2.5243275995295123e-02 0.0000000000000000e+00  1.5119873672207310e-02 2.3994391035152940e-02 0.0000000000000000e+00  1.5028545279696803e-02 2.2774569225297955e-02 0.0000000000000000e+00  1.4884009079917234e-02 2.1586633540590611e-02 0.0000000000000000e+00  1.4688842456802426e-02 2.0435248084925504e-02 0.0000000000000000e+00  1.4446334274315473e-02 1.9320551840912786e-02 0.0000000000000000e+00  1.4159794713817427e-02 1.8244966693409758e-02 0.0000000000000000e+00  1.3831641251644421e-02 1.7209963975657178e-02 0.0000000000000000e+00  1.3464927916369987e-02 1.6217956841605565e-02 0.0000000000000000e+00  1.3062689612388446e-02 1.5267987173908346e-02 0.0000000000000000e+00  1.2627628021489264e-02 1.4362024264598535e-02 0.0000000000000000e+00  1.2162031127854417e-02 1.3500832869230223e-02 0.0000000000000000e+00  1.1668542950764893e-02 1.2684764956302330e-02 0.0000000000000000e+00  1.1149618927443893e-02 1.1914460615511744e-02 0.0000000000000000e+00  1.0607601872436952e-02 1.1189184519646622e-02 0.0000000000000000e+00  1.0044318280608687e-02 1.0509311682423979e-02 0.0000000000000000e+00  9.4618960276626942e-03 9.8743892655730608e-03 0.0000000000000000e+00  8.8624414388217918e-03 9.2852077304250800e-03 0.0000000000000000e+00  8.2474137716902693e-03 8.7408216153660994e-03 0.0000000000000000e+00  7.6186632525362345e-03 8.2408365167056241e-03 0.0000000000000000e+00  6.9776848623544600e-03 7.7859876826712115e-03 0.0000000000000000e+00  6.3260207442973459e-03 7.3749349898447345e-03 0.0000000000000000e+00  5.6650706531429021e-03 7.0068604448321973e-03 0.0000000000000000e+00  4.9958438250780838e-03 6.6833506823047485e-03 0.0000000000000000e+00  4.3197441744991143e-03 6.4027476193412357e-03 0.0000000000000000e+00  3.6378356893406096e-03 6.1650580227344733e-03 0.0000000000000000e+00  2.9509765910187913e-03 5.9697645322912439e-03 0.0000000000000000e+00  2.2607807280148472e-03 5.8174633980330398e-03 0.0000000000000000e+00  1.5675468028706803e-03 5.7069887625733166e-03 0.0000000000000000e+00  8.7286625174416634e-04 5.6381546528495533e-03 0.0000000000000000e+00  1.7708759880971661e-04 5.6118322520507464e-03 0.0000000000000000e+00  -5.1859097403503653e-04 5.6275531586837445e-03 0.0000000000000000e+00  -1.2131203915845511e-03 5.6844547568665098e-03 0.0000000000000000e+00  -1.9059452977158869e-03 5.7831128651820015e-03 0.0000000000000000e+00  -2.5957935690276122e-03 5.9240866840207622e-03 0.0000000000000000e+00  -3.2819630734297364e-03 6.1076102361068488e-03 0.0000000000000000e+00  -3.9631632586186114e-03 6.3333243887479865e-03 0.0000000000000000e+00  -4.6386506188088360e-03 6.6016848290846447e-03 0.0000000000000000e+00  -5.3071373009716842e-03 6.9124606755630634e-03 0.0000000000000000e+00  -5.9677271253967112e-03 7.2663528361086686e-03 0.0000000000000000e+00  -6.6191017409365045e-03 7.6630439031269452e-03 0.0000000000000000e+00  -7.2597343199319172e-03 8.1040842033697560e-03 0.0000000000000000e+00  -7.8888070687008500e-03 8.5884245156808772e-03 0.0000000000000000e+00  -8.5041636124500684e-03 9.1167881127883627e-03 0.0000000000000000e+00  -9.1046695046938398e-03 9.6894706999732412e-03 0.0000000000000000e+00  -9.6886720251898057e-03 1.0306325712132721e-02 0.0000000000000000e+00  -1.0253989053193335e-02 1.0967614876000677e-02 0.0000000000000000e+00  -1.0799486715582493e-02 1.1673935706160470e-02 0.0000000000000000e+00  -1.1322049948551040e-02 1.2425171480972894e-02 0.0000000000000000e+00  -1.1820880018417992e-02 1.3220818399143998e-02 0.0000000000000000e+00  -1.2292475029143102e-02 1.4060798210001186e-02 0.0000000000000000e+00  -1.2735306657176130e-02 1.4945494074167349e-02 0.0000000000000000e+00  -1.3146832025946459e-02 1.5872423836044175e-02 0.0000000000000000e+00  -1.3524205195212172e-02 1.6841693243140905e-02 0.0000000000000000e+00  -1.3865227944839228e-02 1.7853470952094327e-02 0.0000000000000000e+00  -1.4166413997461944e-02 1.8905623875425367e-02 0.0000000000000000e+00  -1.4426020131065012e-02 1.9996880452751182e-02 0.0000000000000000e+00  -1.4639883246758096e-02 2.1126443226799189e-02 0.0000000000000000e+00  -1.4806211882971026e-02 2.2289937041606547e-02 0.0000000000000000e+00  -1.4921665079434241e-02 2.3487294782379559e-02 0.0000000000000000e+00  -1.4983185925158271e-02 2.4715273930608909e-02 0.0000000000000000e+00  -1.4988298827868148e-02 2.5970740162809671e-02 0.0000000000000000e+00  -1.4933810035009171e-02 2.7250047425921724e-02 0.0000000000000000e+00  -1.4817781901825073e-02 2.8550029192987436e-02 0.0000000000000000e+00  -1.4636500776589591e-02 2.9867173079190637e-02 0.0000000000000000e+00  -1.4389123786930986e-02 3.1194909920802552e-02 0.0000000000000000e+00  -1.4072943839234752e-02 3.2529957771539754e-02 0.0000000000000000e+00  -1.3685900486317570e-02 3.3867769091673404e-02 0.0000000000000000e+00  -1.3226922261202222e-02 3.5201383982561396e-02 0.0000000000000000e+00  -1.2695187330791903e-02 3.6525227750409110e-02 0.0000000000000000e+00  -1.2089962743957442e-02 3.7833043211574685e-02 0.0000000000000000e+00  -1.1411424553002390e-02 3.9119109452673002e-02 0.0000000000000000e+00  -1.0658622104787338e-02 4.0377790552512845e-02 0.0000000000000000e+00  -9.8340055193221563e-03 4.1600951049137372e-02 0.0000000000000000e+00  -8.9385884080092175e-03 4.2782273432107103e-02 0.0000000000000000e+00  -7.9736372808119297e-03 4.3916496091823153e-02 0.0000000000000000e+00  -6.9439261778572728e-03 4.4994520426699512e-02 0.0000000000000000e+00  -5.8503978628246375e-03 4.6012607756757647e-02 0.0000000000000000e+00  -4.6982868319999458e-03 4.6963420597482666e-02 0.0000000000000000e+00  -3.4922956174075468e-03 4.7841315828538844e-02 0.0000000000000000e+00  -2.5585722069120572e-03 4.9953108766897944e-02 0.0000000000000000e+00  -2.9043477589605249e-03 5.1332428602834580e-02 0.0000000000000000e+00  -3.2742290201123025e-03 5.2786547935722558e-02 0.0000000000000000e+00  -3.6713153395481848e-03 5.4317642407872874e-02 0.0000000000000000e+00  -4.0965662789600324e-03 5.5933432240027788e-02 0.0000000000000000e+00  -4.5553435780058904e-03 5.7637556968016312e-02 0.0000000000000000e+00  -5.0447625490287725e-03 5.9436784345252361e-02 0.0000000000000000e+00  -5.5740995340345196e-03 6.1338353178757722e-02 0.0000000000000000e+00  -6.1451191396646428e-03 6.3347434609208317e-02 0.0000000000000000e+00  -6.7580566765858604e-03 6.5473563873470614e-02 0.0000000000000000e+00  -7.4203921283059159e-03 6.7723640921686756e-02 0.0000000000000000e+00  -8.1392440210983734e-03 7.0104075229539070e-02 0.0000000000000000e+00  -8.9191964742135130e-03 7.2625184706312254e-02 0.0000000000000000e+00  -9.7694659299675697e-03 7.5289384625373615e-02 0.0000000000000000e+00  -1.0693672227803402e-02 7.8107918157108019e-02 0.0000000000000000e+00  -1.1701532243939191e-02 8.1085752191866034e-02 0.0000000000000000e+00  -1.2804830354786681e-02 8.4220446254865786e-02 0.0000000000000000e+00  -1.4002591353175633e-02 8.7519535877583918e-02 0.0000000000000000e+00  -1.5296854096445349e-02 9.0970295856174915e-02 0.0000000000000000e+00  -1.6681044786573059e-02 9.4556893819420132e-02 0.0000000000000000e+00  -1.8119079239930877e-02 9.8260231939068257e-02 0.0000000000000000e+00  -1.9555660977535316e-02 1.0203499525313539e-01 0.0000000000000000e+00  -2.0870997414062356e-02 1.0582956614195183e-01 0.0000000000000000e+00  -2.1888014953203187e-02 1.0957158631207442e-01 0.0000000000000000e+00  -2.2313369791332780e-02 1.1316227861333272e-01 0.0000000000000000e+00  -2.1735275647587596e-02 1.1649838617266305e-01 0.0000000000000000e+00  -1.9620162415180362e-02 1.1945017758877191e-01 0.0000000000000000e+00  -1.5350254253191821e-02 1.2191725069982121e-01 0.0000000000000000e+00  -8.3337664859822469e-03 1.2381969215245991e-01 0.0000000000000000e+00  1.7562306982142483e-03 1.2509443235274276e-01 0.0000000000000000e+00  1.4721988855760848e-02 1.2574077266248679e-01 0.0000000000000000e+00  2.9637589621416664e-02 1.2570163335603105e-01 0.0000000000000000e+00  4.4755828207426858e-02 1.2485480847840612e-01 0.0000000000000000e+00  5.7665890298547427e-02 1.2296467233612829e-01 0.0000000000000000e+00  6.5463944300932012e-02 1.1963432158491202e-01 0.0000000000000000e+00  6.4716188048887235e-02 1.1478904256407957e-01 0.0000000000000000e+00  5.2453391492714836e-02 1.0879235537916992e-01 0.0000000000000000e+00  2.7401388267195483e-02 1.0352164396457722e-01 0.0000000000000000e+00  -5.9900383376003535e-03 1.0150849123471960e-01 0.0000000000000000e+00  -3.7972479492123498e-02 1.0560778381959204e-01 0.0000000000000000e+00  -5.7068663463099287e-02 1.1660576345877650e-01 0.0000000000000000e+00  -5.9396703577022147e-02 1.3198427215417219e-01 0.0000000000000000e+00  -5.2042591710102101e-02 1.4674595101439356e-01 0.0000000000000000e+00  -4.2975141665759706e-02 1.5815429310279702e-01 0.0000000000000000e+00  -3.5117256352816872e-02 1.6589447001487356e-01 0.0000000000000000e+00  -2.8422596080923321e-02 1.7081879972266745e-01 0.0000000000000000e+00  -2.2569191641690918e-02 1.7353855791666623e-01 0.0000000000000000e+00  -1.7462665766084424e-02 1.7457611385560792e-01 0.0000000000000000e+00  -1.2916545501108656e-02 1.7427986851123856e-01 0.0000000000000000e+00  -8.8898682803543790e-03 1.7290339327456944e-01 0.0000000000000000e+00  -5.3431894302537032e-03 1.7064015478157626e-01 0.0000000000000000e+00  -2.2501795707125555e-03 1.6767642338222322e-01 0.0000000000000000e+00  4.2263391815786566e-04 1.6416058382459026e-01 0.0000000000000000e+00  2.7212765253792331e-03 1.6020657277132339e-01 0.0000000000000000e+00  4.6453094591012954e-03 1.5592118320523815e-01 0.0000000000000000e+00  6.2406915514272134e-03 1.5139614341795019e-01 0.0000000000000000e+00  7.5251164375483622e-03 1.4671756420064161e-01 0.0000000000000000e+00  8.5245419865003173e-03 1.4195870710262087e-01 0.0000000000000000e+00  9.2789624365360018e-03 1.3716822636778667e-01 0.0000000000000000e+00  9.8118951032862192e-03 1.3240181624139657e-01 0.0000000000000000e+00  1.0160172948414137e-02 1.2768975908169722e-01 0.0000000000000000e+00  1.0344442807418601e-02 1.2307117225156912e-01 0.0000000000000000e+00  1.0393973745632095e-02 1.1856749331616011e-01 0.0000000000000000e+00  1.0329330952288164e-02 1.1419707160086164e-01 0.0000000000000000e+00  1.0171890309720582e-02 1.0997356040492010e-01 0.0000000000000000e+00  9.9408883798442014e-03 1.0590263467337133e-01 0.0000000000000000e+00  9.6520284280237258e-03 1.0199597796697847e-01 0.0000000000000000e+00  9.3211717733006558e-03 9.8244402581913678e-02 0.0000000000000000e+00  8.9559314356787868e-03 9.4660566385717071e-02 0.0000000000000000e+00  8.5681722772717132e-03 9.1231328272008319e-02 0.0000000000000000e+00  8.1634877906419639e-03 8.7959556377847817e-02 0.0000000000000000e+00  7.7457846181570693e-03 8.4840317790008751e-02 0.0000000000000000e+00  7.3223676296357990e-03 8.1869928296528616e-02 0.0000000000000000e+00  6.8999613892944713e-03 7.9038817288732785e-02 0.0000000000000000e+00  6.4806004867332713e-03 7.6340895314410517e-02 0.0000000000000000e+00  6.0646300642523583e-03 7.3775263440473984e-02 0.0000000000000000e+00  5.6586679901260636e-03 7.1329142847059504e-02 0.0000000000000000e+00  5.2572681509277241e-03 6.9001652654246307e-02 0.0000000000000000e+00  4.8675182347767574e-03 6.6783629531880398e-02 0.0000000000000000e+00  4.4891779575541467e-03 6.4671434976637479e-02 0.0000000000000000e+00  4.1217516760459639e-03 6.2659090982823240e-02 0.0000000000000000e+00  3.7663171928990326e-03 6.0740270050643946e-02 0.0000000000000000e+00  3.4236968825782630e-03 5.8911951628979435e-02 0.0000000000000000e+00  3.0944394299646733e-03 5.7166601139637313e-02 0.0000000000000000e+00  2.7768317999211619e-03 5.5502576096247605e-02 0.0000000000000000e+00  2.4727882519465605e-03 5.3913090695753202e-02 0.0000000000000000e+00  2.1826208534922041e-03 5.2395990475462104e-02 0.0000000000000000e+00  1.9046615881396322e-03 5.0946227190996299e-02 0.0000000000000000e+00  1.6396512096694290e-03 4.9561359610467010e-02 0.0000000000000000e+00  1.3867948396312280e-03 4.8236962144538063e-02 0.0000000000000000e+00  1.1471843250666310e-03 4.6970949592937759e-02 0.0000000000000000e+00  9.2047408579412171e-04 4.5759223296883610e-02 0.0000000000000000e+00  7.0546372574394490e-04 4.4600052774892394e-02 0.0000000000000000e+00  5.0194763761755162e-04 4.3490023885413467e-02 0.0000000000000000e+00  3.1110436917411292e-04 4.2426637219978969e-02 0.0000000000000000e+00  1.3120515155910911e-04 4.1408532361039169e-02 0.0000000000000000e+00  -3.6944743487275384e-05 4.0432621359866722e-02 0.0000000000000000e+00  -1.9352850525750014e-04 3.9497515933621392e-02 0.0000000000000000e+00  -3.4021475662478413e-04 3.8601465853941433e-02 0.0000000000000000e+00  3.5206196429681051e-04 3.7251647915729436e-02 0.0000000000000000e+00  1.1557585226766069e-03 3.6714641367491849e-02 0.0000000000000000e+00  1.9320529433573671e-03 3.6133167852671857e-02 0.0000000000000000e+00  2.6777843632423775e-03 3.5510091291877217e-02 0.0000000000000000e+00  3.3914034708767281e-03 3.4847531209858250e-02 0.0000000000000000e+00  4.0701818339986132e-03 3.4149063161952195e-02 0.0000000000000000e+00  4.7130464951066027e-03 3.3416573778640782e-02 0.0000000000000000e+00  5.3176007963805973e-03 3.2653720755921149e-02 0.0000000000000000e+00  5.8826909225154732e-03 3.1863515166326177e-02 0.0000000000000000e+00  6.4077348865261867e-03 3.1048828531041319e-02 0.0000000000000000e+00  6.8911199659841584e-03 3.0213002594078400e-02 0.0000000000000000e+00  7.3321889526107437e-03 2.9359877670494840e-02 0.0000000000000000e+00  7.7305091633424914e-03 2.8492168462046875e-02 0.0000000000000000e+00  8.0853521019962730e-03 2.7613948880520232e-02 0.0000000000000000e+00  8.3975246261096780e-03 2.6727215511598523e-02 0.0000000000000000e+00  8.6663694341567454e-03 2.5836113537332065e-02 0.0000000000000000e+00  8.8923692039581514e-03 2.4943903313618065e-02 0.0000000000000000e+00  9.0761980250641978e-03 2.4053137915362260e-02 0.0000000000000000e+00  9.2184274877625521e-03 2.3166560855972802e-02 0.0000000000000000e+00  9.3195494444128710e-03 2.2287787384971065e-02 0.0000000000000000e+00  9.3808414111681854e-03 2.1418843111745398e-02 0.0000000000000000e+00  9.4031334657336992e-03 2.0562711925830226e-02 0.0000000000000000e+00  9.3875175320603417e-03 1.9721814792167787e-02 0.0000000000000000e+00  9.3357638803061530e-03 1.8897535518178028e-02 0.0000000000000000e+00  9.2487911570386522e-03 1.8092581373240487e-02 0.0000000000000000e+00  9.1280214730554716e-03 1.7308740090821683e-02 0.0000000000000000e+00  8.9750894893646360e-03 1.6547882311827727e-02 0.0000000000000000e+00  8.7916020453761706e-03 1.5811046737123954e-02 0.0000000000000000e+00  8.5788541437758024e-03 1.5100727064854476e-02 0.0000000000000000e+00  8.3382835862673439e-03 1.4417584726856926e-02 0.0000000000000000e+00  8.0717663710382550e-03 1.3762862961561002e-02 0.0000000000000000e+00  7.7806504670251296e-03 1.3137489293741575e-02 0.0000000000000000e+00  7.4666776549550638e-03 1.2542177882131281e-02 0.0000000000000000e+00  7.1311294532390825e-03 1.1978306864029117e-02 0.0000000000000000e+00  6.7757165951006261e-03 1.1446300808124645e-02 0.0000000000000000e+00  6.4018986611930600e-03 1.0947128462285519e-02 0.0000000000000000e+00  6.0109213496053002e-03 1.0480483081221122e-02 0.0000000000000000e+00  5.6044821802269992e-03 1.0047557081932787e-02 0.0000000000000000e+00  5.1836813331989405e-03 9.6484577904058701e-03 0.0000000000000000e+00  4.7502055132163604e-03 9.2831188861220836e-03 0.0000000000000000e+00  4.3051254676805843e-03 8.9524570619743758e-03 0.0000000000000000e+00  3.8496468399722827e-03 8.6570300817116370e-03 0.0000000000000000e+00  3.3852792645658659e-03 8.3958020352041546e-03 0.0000000000000000e+00  2.9129940489575263e-03 8.1695889940571580e-03 0.0000000000000000e+00  2.4340805529432996e-03 7.9783142064793026e-03 0.0000000000000000e+00  1.9498029792859375e-03 7.8221600117309303e-03 0.0000000000000000e+00  1.4610646974018004e-03 7.7007302812324837e-03 0.0000000000000000e+00  9.6941874972804071e-04 7.6148213759393143e-03 0.0000000000000000e+00  4.7550357801252500e-04 7.5644014623970912e-03 0.0000000000000000e+00  -1.9177665872707233e-05 7.5488119004725567e-03 0.0000000000000000e+00  -5.1372800551895993e-04 7.5683682810319093e-03 0.0000000000000000e+00  -1.0071090874115758e-03 7.6235066295684654e-03 0.0000000000000000e+00  -1.4979711590531256e-03 7.7139360144697217e-03 0.0000000000000000e+00  -1.9853712007907938e-03 7.8392711991576575e-03 0.0000000000000000e+00  -2.4680764586678173e-03 7.9994595642979734e-03 0.0000000000000000e+00  -2.9451707733624023e-03 8.1947031899796078e-03 0.0000000000000000e+00  -3.4152076303966680e-03 8.4247193324936565e-03 0.0000000000000000e+00  -3.8772100657985331e-03 8.6897962437315398e-03 0.0000000000000000e+00  -4.3298288251422427e-03 8.9893566645558622e-03 0.0000000000000000e+00  -4.7717805354113322e-03 9.3236681202699453e-03 0.0000000000000000e+00  -5.2020891374172200e-03 9.6916444628342927e-03 0.0000000000000000e+00  -5.6190164497432714e-03 1.0093893408682660e-02 0.0000000000000000e+00  -6.0216458187921538e-03 1.0529691635098922e-02 0.0000000000000000e+00  -6.4083596453886615e-03 1.0998706029367237e-02 0.0000000000000000e+00  -6.7777227135282867e-03 1.1500499082908037e-02 0.0000000000000000e+00  -7.1284429286435106e-03 1.2034582936123566e-02 0.0000000000000000e+00  -7.4588539290614091e-03 1.2600133844993869e-02 0.0000000000000000e+00  -7.7679268217607676e-03 1.3196167326496103e-02 0.0000000000000000e+00  -8.0534400349084340e-03 1.3822490887200108e-02 0.0000000000000000e+00  -8.3146156677933389e-03 1.4477706781796346e-02 0.0000000000000000e+00  -8.5494952946372927e-03 1.5160664970731076e-02 0.0000000000000000e+00  -8.7565038854790014e-03 1.5871030050405112e-02 0.0000000000000000e+00  -8.9342453297937448e-03 1.6607266444347624e-02 0.0000000000000000e+00  -9.0812915889615028e-03 1.7366962131164936e-02 0.0000000000000000e+00  -9.1963160000955307e-03 1.8149203881384170e-02 0.0000000000000000e+00  -9.2772315828775556e-03 1.8952015284793622e-02 0.0000000000000000e+00  -9.3237108025990886e-0