<?xml version="1.0"?>
<VTKFile type="UnstructuredGrid"  version="0.1"  >
<UnstructuredGrid>
<Piece  NumberOfPoints="16275" NumberOfCells="32468">
<Points>
<DataArray  type="Float64"  NumberOfComponents="3"  format="ascii">-0.5 0.5 0  0.5 0.5 0  0.5 -0.5 0  -0.5 -0.5 0  -1 1 0  1 1 0  1 -1 0  -1 -1 0  -0.4900000000000277 0.5 0  -0.4800000000000555 0.5 0  -0.4700000000000832 0.5 0  -0.4600000000001109 0.5 0  -0.4500000000001387 0.5 0  -0.4400000000001664 0.5 0  -0.4300000000001942 0.5 0  -0.4200000000002219 0.5 0  -0.4100000000002497 0.5 0  -0.4000000000002774 0.5 0  -0.3900000000003052 0.5 0  -0.3800000000003328 0.5 0  -0.3700000000003606 0.5 0  -0.3600000000003883 0.5 0  -0.3500000000004161 0.5 0  -0.3400000000004438 0.5 0  -0.3300000000004716 0.5 0  -0.3200000000004993 0.5 0  -0.3100000000005271 0.5 0  -0.3000000000005548 0.5 0  -0.2900000000005825 0.5 0  -0.2800000000006103 0.5 0  -0.2700000000006381 0.5 0  -0.2600000000006658 0.5 0  -0.2500000000006935 0.5 0  -0.2400000000007212 0.5 0  -0.230000000000749 0.5 0  -0.2200000000007767 0.5 0  -0.2100000000008044 0.5 0  -0.2000000000008322 0.5 0  -0.19000000000086 0.5 0  -0.1800000000008877 0.5 0  -0.1700000000009154 0.5 0  -0.1600000000009431 0.5 0  -0.1500000000009709 0.5 0  -0.1400000000009986 0.5 0  -0.1300000000010264 0.5 0  -0.1200000000010541 0.5 0  -0.1100000000010818 0.5 0  -0.1000000000011096 0.5 0  -0.09000000000113734 0.5 0  -0.08000000000116503 0.5 0  -0.07000000000119283 0.5 0  -0.06000000000122058 0.5 0  -0.05000000000124827 0.5 0  -0.04000000000127607 0.5 0  -0.03000000000130376 0.5 0  -0.02000000000133151 0.5 0  -0.01000000000135925 0.5 0  -1.376121439022882e-12 0.5 0  0.009999999998640763 0.5 0  0.01999999999866864 0.5 0  0.02999999999869629 0.5 0  0.03999999999872406 0.5 0  0.04999999999875182 0.5 0  0.05999999999877947 0.5 0  0.06999999999880724 0.5 0  0.079999999998835 0.5 0  0.08999999999886266 0.5 0  0.09999999999889042 0.5 0  0.1099999999989182 0.5 0  0.1199999999989459 0.5 0  0.1299999999989737 0.5 0  0.1399999999990014 0.5 0  0.1499999999990291 0.5 0  0.1599999999990568 0.5 0  0.1699999999990847 0.5 0  0.1799999999991124 0.5 0  0.1899999999991401 0.5 0  0.1999999999991678 0.5 0  0.2099999999991955 0.5 0  0.2199999999992234 0.5 0  0.2299999999992511 0.5 0  0.2399999999992788 0.5 0  0.2499999999993066 0.5 0  0.2599999999993342 0.5 0  0.269999999999362 0.5 0  0.2799999999993897 0.5 0  0.2899999999994175 0.5 0  0.2999999999994452 0.5 0  0.3099999999994729 0.5 0  0.3199999999995007 0.5 0  0.3299999999995284 0.5 0  0.3399999999995562 0.5 0  0.3499999999995839 0.5 0  0.3599999999996116 0.5 0  0.3699999999996393 0.5 0  0.379999999999667 0.5 0  0.3899999999996949 0.5 0  0.3999999999997226 0.5 0  0.4099999999997503 0.5 0  0.419999999999778 0.5 0  0.4299999999998058 0.5 0  0.4399999999998336 0.5 0  0.4499999999998613 0.5 0  0.4599999999998891 0.5 0  0.4699999999999167 0.5 0  0.4799999999999445 0.5 0  0.4899999999999722 0.5 0  0.5 0.4900000000000277 0  0.5 0.4800000000000555 0  0.5 0.4700000000000832 0  0.5 0.4600000000001109 0  0.5 0.4500000000001387 0  0.5 0.4400000000001664 0  0.5 0.4300000000001942 0  0.5 0.4200000000002219 0  0.5 0.4100000000002497 0  0.5 0.4000000000002774 0  0.5 0.3900000000003052 0  0.5 0.3800000000003328 0  0.5 0.3700000000003606 0  0.5 0.3600000000003883 0  0.5 0.3500000000004161 0  0.5 0.3400000000004438 0  0.5 0.3300000000004716 0  0.5 0.3200000000004993 0  0.5 0.3100000000005271 0  0.5 0.3000000000005548 0  0.5 0.2900000000005825 0  0.5 0.2800000000006103 0  0.5 0.2700000000006381 0  0.5 0.2600000000006658 0  0.5 0.2500000000006935 0  0.5 0.2400000000007212 0  0.5 0.230000000000749 0  0.5 0.2200000000007767 0  0.5 0.2100000000008044 0  0.5 0.2000000000008322 0  0.5 0.19000000000086 0  0.5 0.1800000000008877 0  0.5 0.1700000000009154 0  0.5 0.1600000000009431 0  0.5 0.1500000000009709 0  0.5 0.1400000000009986 0  0.5 0.1300000000010264 0  0.5 0.1200000000010541 0  0.5 0.1100000000010818 0  0.5 0.1000000000011096 0  0.5 0.09000000000113734 0  0.5 0.08000000000116503 0  0.5 0.07000000000119283 0  0.5 0.06000000000122058 0  0.5 0.05000000000124827 0  0.5 0.04000000000127607 0  0.5 0.03000000000130376 0  0.5 0.02000000000133151 0  0.5 0.01000000000135925 0  0.5 1.376121439022882e-12 0  0.5 -0.009999999998640763 0  0.5 -0.01999999999866864 0  0.5 -0.02999999999869629 0  0.5 -0.03999999999872406 0  0.5 -0.04999999999875182 0  0.5 -0.05999999999877947 0  0.5 -0.06999999999880724 0  0.5 -0.079999999998835 0  0.5 -0.08999999999886266 0  0.5 -0.09999999999889042 0  0.5 -0.1099999999989182 0  0.5 -0.1199999999989459 0  0.5 -0.1299999999989737 0  0.5 -0.1399999999990014 0  0.5 -0.1499999999990291 0  0.5 -0.1599999999990568 0  0.5 -0.1699999999990847 0  0.5 -0.1799999999991124 0  0.5 -0.1899999999991401 0  0.5 -0.1999999999991678 0  0.5 -0.2099999999991955 0  0.5 -0.2199999999992234 0  0.5 -0.2299999999992511 0  0.5 -0.2399999999992788 0  0.5 -0.2499999999993066 0  0.5 -0.2599999999993342 0  0.5 -0.269999999999362 0  0.5 -0.2799999999993897 0  0.5 -0.2899999999994175 0  0.5 -0.2999999999994452 0  0.5 -0.3099999999994729 0  0.5 -0.3199999999995007 0  0.5 -0.3299999999995284 0  0.5 -0.3399999999995562 0  0.5 -0.3499999999995839 0  0.5 -0.3599999999996116 0  0.5 -0.3699999999996393 0  0.5 -0.379999999999667 0  0.5 -0.3899999999996949 0  0.5 -0.3999999999997226 0  0.5 -0.4099999999997503 0  0.5 -0.419999999999778 0  0.5 -0.4299999999998058 0  0.5 -0.4399999999998336 0  0.5 -0.4499999999998613 0  0.5 -0.4599999999998891 0  0.5 -0.4699999999999167 0  0.5 -0.4799999999999445 0  0.5 -0.4899999999999722 0  0.4900000000000277 -0.5 0  0.4800000000000555 -0.5 0  0.4700000000000832 -0.5 0  0.4600000000001109 -0.5 0  0.4500000000001387 -0.5 0  0.4400000000001664 -0.5 0  0.4300000000001942 -0.5 0  0.4200000000002219 -0.5 0  0.4100000000002497 -0.5 0  0.4000000000002774 -0.5 0  0.3900000000003052 -0.5 0  0.3800000000003328 -0.5 0  0.3700000000003606 -0.5 0  0.3600000000003883 -0.5 0  0.3500000000004161 -0.5 0  0.3400000000004438 -0.5 0  0.3300000000004716 -0.5 0  0.3200000000004993 -0.5 0  0.3100000000005271 -0.5 0  0.3000000000005548 -0.5 0  0.2900000000005825 -0.5 0  0.2800000000006103 -0.5 0  0.2700000000006381 -0.5 0  0.2600000000006658 -0.5 0  0.2500000000006935 -0.5 0  0.2400000000007212 -0.5 0  0.230000000000749 -0.5 0  0.2200000000007767 -0.5 0  0.2100000000008044 -0.5 0  0.2000000000008322 -0.5 0  0.19000000000086 -0.5 0  0.1800000000008877 -0.5 0  0.1700000000009154 -0.5 0  0.1600000000009431 -0.5 0  0.1500000000009709 -0.5 0  0.1400000000009986 -0.5 0  0.1300000000010264 -0.5 0  0.1200000000010541 -0.5 0  0.1100000000010818 -0.5 0  0.1000000000011096 -0.5 0  0.09000000000113734 -0.5 0  0.08000000000116503 -0.5 0  0.07000000000119283 -0.5 0  0.06000000000122058 -0.5 0  0.05000000000124827 -0.5 0  0.04000000000127607 -0.5 0  0.03000000000130376 -0.5 0  0.02000000000133151 -0.5 0  0.01000000000135925 -0.5 0  1.376121439022882e-12 -0.5 0  -0.009999999998640763 -0.5 0  -0.01999999999866864 -0.5 0  -0.02999999999869629 -0.5 0  -0.03999999999872406 -0.5 0  -0.04999999999875182 -0.5 0  -0.05999999999877947 -0.5 0  -0.06999999999880724 -0.5 0  -0.079999999998835 -0.5 0  -0.08999999999886266 -0.5 0  -0.09999999999889042 -0.5 0  -0.1099999999989182 -0.5 0  -0.1199999999989459 -0.5 0  -0.1299999999989737 -0.5 0  -0.1399999999990014 -0.5 0  -0.1499999999990291 -0.5 0  -0.1599999999990568 -0.5 0  -0.1699999999990847 -0.5 0  -0.1799999999991124 -0.5 0  -0.1899999999991401 -0.5 0  -0.1999999999991678 -0.5 0  -0.2099999999991955 -0.5 0  -0.2199999999992234 -0.5 0  -0.2299999999992511 -0.5 0  -0.2399999999992788 -0.5 0  -0.2499999999993066 -0.5 0  -0.2599999999993342 -0.5 0  -0.269999999999362 -0.5 0  -0.2799999999993897 -0.5 0  -0.2899999999994175 -0.5 0  -0.2999999999994452 -0.5 0  -0.3099999999994729 -0.5 0  -0.3199999999995007 -0.5 0  -0.3299999999995284 -0.5 0  -0.3399999999995562 -0.5 0  -0.3499999999995839 -0.5 0  -0.3599999999996116 -0.5 0  -0.3699999999996393 -0.5 0  -0.379999999999667 -0.5 0  -0.3899999999996949 -0.5 0  -0.3999999999997226 -0.5 0  -0.4099999999997503 -0.5 0  -0.419999999999778 -0.5 0  -0.4299999999998058 -0.5 0  -0.4399999999998336 -0.5 0  -0.4499999999998613 -0.5 0  -0.4599999999998891 -0.5 0  -0.4699999999999167 -0.5 0  -0.4799999999999445 -0.5 0  -0.4899999999999722 -0.5 0  -0.5 -0.4900000000000277 0  -0.5 -0.4800000000000555 0  -0.5 -0.4700000000000832 0  -0.5 -0.4600000000001109 0  -0.5 -0.4500000000001387 0  -0.5 -0.4400000000001664 0  -0.5 -0.4300000000001942 0  -0.5 -0.4200000000002219 0  -0.5 -0.4100000000002497 0  -0.5 -0.4000000000002774 0  -0.5 -0.3900000000003052 0  -0.5 -0.3800000000003328 0  -0.5 -0.3700000000003606 0  -0.5 -0.3600000000003883 0  -0.5 -0.3500000000004161 0  -0.5 -0.3400000000004438 0  -0.5 -0.3300000000004716 0  -0.5 -0.3200000000004993 0  -0.5 -0.3100000000005271 0  -0.5 -0.3000000000005548 0  -0.5 -0.2900000000005825 0  -0.5 -0.2800000000006103 0  -0.5 -0.2700000000006381 0  -0.5 -0.2600000000006658 0  -0.5 -0.2500000000006935 0  -0.5 -0.2400000000007212 0  -0.5 -0.230000000000749 0  -0.5 -0.2200000000007767 0  -0.5 -0.2100000000008044 0  -0.5 -0.2000000000008322 0  -0.5 -0.19000000000086 0  -0.5 -0.1800000000008877 0  -0.5 -0.1700000000009154 0  -0.5 -0.1600000000009431 0  -0.5 -0.1500000000009709 0  -0.5 -0.1400000000009986 0  -0.5 -0.1300000000010264 0  -0.5 -0.1200000000010541 0  -0.5 -0.1100000000010818 0  -0.5 -0.1000000000011096 0  -0.5 -0.09000000000113734 0  -0.5 -0.08000000000116503 0  -0.5 -0.07000000000119283 0  -0.5 -0.06000000000122058 0  -0.5 -0.05000000000124827 0  -0.5 -0.04000000000127607 0  -0.5 -0.03000000000130376 0  -0.5 -0.02000000000133151 0  -0.5 -0.01000000000135925 0  -0.5 -1.376121439022882e-12 0  -0.5 0.009999999998640763 0  -0.5 0.01999999999866864 0  -0.5 0.02999999999869629 0  -0.5 0.03999999999872406 0  -0.5 0.04999999999875182 0  -0.5 0.05999999999877947 0  -0.5 0.06999999999880724 0  -0.5 0.079999999998835 0  -0.5 0.08999999999886266 0  -0.5 0.09999999999889042
[...]
<PointData  Vectors="f_27-0"> 
<DataArray  type="Float64"  Name="f_27-0"  NumberOfComponents="3" format="ascii">4.1738475038093125e-04 4.4683164568685652e-02 0.0000000000000000e+00  -8.0987298630706499e-04 4.4627164273690623e-02 0.0000000000000000e+00  -5.2016960382757292e-04 3.9571379248728090e-02 0.0000000000000000e+00  6.6944212050817377e-04 3.9539442379523164e-02 0.0000000000000000e+00  -4.9887186214473108e-03 1.1018499985630228e-02 0.0000000000000000e+00  5.0063720390499094e-03 1.1025360289514313e-02 0.0000000000000000e+00  -4.3873260974164304e-03 1.0450147250202583e-02 0.0000000000000000e+00  4.3873901176471886e-03 1.0440764042189927e-02 0.0000000000000000e+00  1.4724462770091460e-03 4.4061562410295761e-02 0.0000000000000000e+00  2.4943147002348459e-03 4.3375942906466861e-02 0.0000000000000000e+00  3.4792161537832858e-03 4.2629482937697395e-02 0.0000000000000000e+00  4.4235430011204764e-03 4.1825665873439548e-02 0.0000000000000000e+00  5.3240053488573255e-03 4.0968338346729978e-02 0.0000000000000000e+00  6.1776483964313886e-03 4.0061613684802599e-02 0.0000000000000000e+00  6.9818149370032088e-03 3.9109921839174652e-02 0.0000000000000000e+00  7.7342192251129080e-03 3.8117821007500302e-02 0.0000000000000000e+00  8.4329433029813380e-03 3.7089997107494159e-02 0.0000000000000000e+00  9.0764243121799360e-03 3.6031344065922732e-02 0.0000000000000000e+00  9.6635158213260672e-03 3.4946743321876021e-02 0.0000000000000000e+00  1.0193386615342774e-02 3.3841020162293282e-02 0.0000000000000000e+00  1.0665572090420648e-02 3.2719060080113438e-02 0.0000000000000000e+00  1.1079969037675356e-02 3.1585595705073050e-02 0.0000000000000000e+00  1.1436780462069061e-02 3.0445321396279229e-02 0.0000000000000000e+00  1.1736545680724035e-02 2.9302675092005633e-02 0.0000000000000000e+00  1.1980050038023805e-02 2.8161979096897917e-02 0.0000000000000000e+00  1.2168365599898893e-02 2.7027383438746035e-02 0.0000000000000000e+00  1.2302764155135712e-02 2.5902733039739716e-02 0.0000000000000000e+00  1.2384741720578712e-02 2.4791652069004595e-02 0.0000000000000000e+00  1.2415952734978275e-02 2.3697581815536380e-02 0.0000000000000000e+00  1.2398219077347056e-02 2.2623604296595278e-02 0.0000000000000000e+00  1.2333482523345618e-02 2.1572622085189647e-02 0.0000000000000000e+00  1.2223752888352594e-02 2.0547285793701554e-02 0.0000000000000000e+00  1.2071148537384209e-02 1.9549911803086153e-02 0.0000000000000000e+00  1.1877794978191858e-02 1.8582642209371857e-02 0.0000000000000000e+00  1.1645886506151825e-02 1.7647335495407600e-02 0.0000000000000000e+00  1.1377591495431718e-02 1.6745653956506752e-02 0.0000000000000000e+00  1.1075104490326922e-02 1.5879033835490417e-02 0.0000000000000000e+00  1.0740579574955349e-02 1.5048692874837984e-02 0.0000000000000000e+00  1.0376109949936979e-02 1.4255684835666213e-02 0.0000000000000000e+00  9.9837975740211752e-03 1.3500895612546427e-02 0.0000000000000000e+00  9.5656441022802866e-03 1.2785053825708043e-02 0.0000000000000000e+00  9.1236112835551587e-03 1.2108710889888992e-02 0.0000000000000000e+00  8.6595844532098044e-03 1.1472342458750735e-02 0.0000000000000000e+00  8.1753864847383725e-03 1.0876281273982345e-02 0.0000000000000000e+00  7.6727664250314728e-03 1.0320809919532905e-02 0.0000000000000000e+00  7.1533907341804950e-03 9.8060772620277726e-03 0.0000000000000000e+00  6.6188671533680991e-03 9.3321868701901761e-03 0.0000000000000000e+00  6.0707281077121093e-03 8.8992074416316576e-03 0.0000000000000000e+00  5.5104298983031227e-03 8.5071280337251261e-03 0.0000000000000000e+00  4.9393726000428063e-03 8.1559203797002301e-03 0.0000000000000000e+00  4.3588895025076244e-03 7.8455461351659810e-03 0.0000000000000000e+00  3.7702797617994092e-03 7.5759228608202880e-03 0.0000000000000000e+00  3.1747625048251494e-03 7.3469895640876975e-03 0.0000000000000000e+00  2.5735256627578552e-03 7.1586518216743165e-03 0.0000000000000000e+00  1.9677394235845195e-03 7.0108643814591701e-03 0.0000000000000000e+00  1.3585100833545243e-03 6.9035507193390688e-03 0.0000000000000000e+00  7.4694110646467181e-04 6.8366515720885545e-03 0.0000000000000000e+00  1.3411292702372127e-04 6.8101572400717184e-03 0.0000000000000000e+00  -4.7890102359648767e-04 6.8240417521435899e-03 0.0000000000000000e+00  -1.0910232608198321e-03 6.8782926312655349e-03 0.0000000000000000e+00  -1.7011923905823874e-03 6.9729420258054370e-03 0.0000000000000000e+00  -2.3083055916965911e-03 7.1080283948890578e-03 0.0000000000000000e+00  -2.9112721015806383e-03 7.2836013879720041e-03 0.0000000000000000e+00  -3.5089407944055378e-03 7.4997059032209943e-03 0.0000000000000000e+00  -4.1001509334282022e-03 7.7564236742771256e-03 0.0000000000000000e+00  -4.6836926128220914e-03 8.0538188127267547e-03 0.0000000000000000e+00  -5.2583183287293611e-03 8.3919585909096959e-03 0.0000000000000000e+00  -5.8227212464872988e-03 8.7708835457393323e-03 0.0000000000000000e+00  -6.3755304512454784e-03 9.1906506603178385e-03 0.0000000000000000e+00  -6.9153396982079771e-03 9.6512388292824651e-03 0.0000000000000000e+00  -7.4406346040525708e-03 1.0152624256759432e-02 0.0000000000000000e+00  -7.9498734619543494e-03 1.0694726665313988e-02 0.0000000000000000e+00  -8.4414225426845488e-03 1.1277401195106226e-02 0.0000000000000000e+00  -8.9135801402870588e-03 1.1900429420764518e-02 0.0000000000000000e+00  -9.3645821804159042e-03 1.2563498786640958e-02 0.0000000000000000e+00  -9.7925545667474148e-03 1.3266207790862043e-02 0.0000000000000000e+00  -1.0195620988646473e-02 1.4008039647609476e-02 0.0000000000000000e+00  -1.0571767576559608e-02 1.4788329348360180e-02 0.0000000000000000e+00  -1.0918982148411896e-02 1.5606293909238860e-02 0.0000000000000000e+00  -1.1235173451670698e-02 1.6460956074181382e-02 0.0000000000000000e+00  -1.1518189812630661e-02 1.7351154793095305e-02 0.0000000000000000e+00  -1.1765899810946362e-02 1.8275600060399442e-02 0.0000000000000000e+00  -1.1976097793446452e-02 1.9232736607648088e-02 0.0000000000000000e+00  -1.2146626915585185e-02 2.0220794096213378e-02 0.0000000000000000e+00  -1.2275299411288900e-02 2.1237796183865728e-02 0.0000000000000000e+00  -1.2360004159223630e-02 2.2281458677142971e-02 0.0000000000000000e+00  -1.2398653418476379e-02 2.3349365687964762e-02 0.0000000000000000e+00  -1.2389244084982445e-02 2.4438724048791570e-02 0.0000000000000000e+00  -1.2329907582080933e-02 2.5546547665974438e-02 0.0000000000000000e+00  -1.2218844598756353e-02 2.6669575151978733e-02 0.0000000000000000e+00  -1.2054478401972685e-02 2.7804261659132464e-02 0.0000000000000000e+00  -1.1835374431632207e-02 2.8946899454129243e-02 0.0000000000000000e+00  -1.1560318084295362e-02 3.0093389493762647e-02 0.0000000000000000e+00  -1.1228334810318527e-02 3.1239606900864750e-02 0.0000000000000000e+00  -1.0838718833625915e-02 3.2381076482378972e-02 0.0000000000000000e+00  -1.0391050917389722e-02 3.3513249234827430e-02 0.0000000000000000e+00  -9.8852345216091098e-03 3.4631315700815513e-02 0.0000000000000000e+00  -9.3215017911834359e-03 3.5730475399400698e-02 0.0000000000000000e+00  -8.7004364972097913e-03 3.6805804174593920e-02 0.0000000000000000e+00  -8.0229581146795334e-03 3.7852416065966107e-02 0.0000000000000000e+00  -7.2904404776335599e-03 3.8865351092580054e-02 0.0000000000000000e+00  -6.5045543599845353e-03 3.9839766848326817e-02 0.0000000000000000e+00  -5.6673891055318412e-03 4.0770945788142270e-02 0.0000000000000000e+00  -4.7813864696664042e-03 4.1654272992991091e-02 0.0000000000000000e+00  -3.8493269146996812e-03 4.2485503668264549e-02 0.0000000000000000e+00  -2.8743638459255080e-03 4.3260499211027030e-02 0.0000000000000000e+00  -1.8599929539139263e-03 4.3975512633764494e-02 0.0000000000000000e+00  -1.0209651967730395e-03 4.5717694734066991e-02 0.0000000000000000e+00  -1.2443944457396748e-03 4.6857491163506529e-02 0.0000000000000000e+00  -1.4801595170941451e-03 4.8048856741738540e-02 0.0000000000000000e+00  -1.7282105885175428e-03 4.9294178477819722e-02 0.0000000000000000e+00  -1.9883487380574368e-03 5.0595943418469042e-02 0.0000000000000000e+00  -2.2601517932005510e-03 5.1956617764349226e-02 0.0000000000000000e+00  -2.5430731591091051e-03 5.3378656293661481e-02 0.0000000000000000e+00  -2.8361631285813986e-03 5.4864785376074587e-02 0.0000000000000000e+00  -3.1382712604588127e-03 5.6417284542567010e-02 0.0000000000000000e+00  -3.4476427591981136e-03 5.8038515355241911e-02 0.0000000000000000e+00  -3.7621070464093982e-03 5.9730841657993125e-02 0.0000000000000000e+00  -4.0789678999897166e-03 6.1496187885043706e-02 0.0000000000000000e+00  -4.3947323559643779e-03 6.3336367330935284e-02 0.0000000000000000e+00  -4.7051031560419827e-03 6.5252619021236538e-02 0.0000000000000000e+00  -5.0048739929027791e-03 6.7245898242983257e-02 0.0000000000000000e+00  -5.2878099677502056e-03 6.9316488740764473e-02 0.0000000000000000e+00  -5.5466000694595115e-03 7.1463936430448030e-02 0.0000000000000000e+00  -5.7728617485561526e-03 7.3687072122242986e-02 0.0000000000000000e+00  -5.9570293130345661e-03 7.5983465416798970e-02 0.0000000000000000e+00  -6.0885174527158152e-03 7.8349674984951975e-02 0.0000000000000000e+00  -6.1560676986229896e-03 8.0781273695848768e-02 0.0000000000000000e+00  -6.1478139484267939e-03 8.3272019391742447e-02 0.0000000000000000e+00  -6.0519696100824498e-03 8.5814471318595209e-02 0.0000000000000000e+00  -5.8573930539034015e-03 8.8399315561849573e-02 0.0000000000000000e+00  -5.5543925666419434e-03 9.1016129756376199e-02 0.0000000000000000e+00  -5.1357659646743877e-03 9.3652425473328346e-02 0.0000000000000000e+00  -4.5978526667324352e-03 9.6294405373484757e-02 0.0000000000000000e+00  -3.9419642353890807e-03 9.8926717298235767e-02 0.0000000000000000e+00  -3.1750303242307530e-03 1.0153339361490646e-01 0.0000000000000000e+00  -2.3115109895269536e-03 1.0409691065666185e-01 0.0000000000000000e+00  -1.3733297636137557e-03 1.0659971679426360e-01 0.0000000000000000e+00  -3.9062698588116055e-04 1.0902401019665454e-01 0.0000000000000000e+00  5.9890716423534579e-04 1.1135256597453964e-01 0.0000000000000000e+00  1.5508250275959572e-03 1.1356893568913520e-01 0.0000000000000000e+00  2.4165851075671711e-03 1.1565829693527734e-01 0.0000000000000000e+00  3.1459722465476694e-03 1.1760736208901298e-01 0.0000000000000000e+00  3.6918464132113301e-03 1.1940508054842469e-01 0.0000000000000000e+00  4.0133811309883910e-03 1.2104300772732036e-01 0.0000000000000000e+00  4.0810493313517002e-03 1.2251485171706628e-01 0.0000000000000000e+00  3.8807514817791209e-03 1.2381653653974870e-01 0.0000000000000000e+00  3.4158704021816796e-03 1.2494626645870949e-01 0.0000000000000000e+00  2.7091722255606202e-03 1.2590363097459767e-01 0.0000000000000000e+00  1.8020671625320168e-03 1.2668888077526791e-01 0.0000000000000000e+00  7.5092160113650883e-04 1.2730285708204528e-01 0.0000000000000000e+00  -3.7695298402576105e-04 1.2774613065554905e-01 0.0000000000000000e+00  -1.5096042604921592e-03 1.2801850909895376e-01 0.0000000000000000e+00  -2.5764405798404041e-03 1.2811832043820748e-01 0.0000000000000000e+00  -3.5151964505633873e-03 1.2804382735365732e-01 0.0000000000000000e+00  -4.2757794874302571e-03 1.2779177226682975e-01 0.0000000000000000e+00  -4.8234278714546618e-03 1.2735890507770889e-01 0.0000000000000000e+00  -5.1401816453741367e-03 1.2674225440649742e-01 0.0000000000000000e+00  -5.2238107483239728e-03 1.2593987724718558e-01 0.0000000000000000e+00  -5.0858835783785042e-03 1.2495145723463226e-01 0.0000000000000000e+00  -4.7487558285983595e-03 1.2377852493959739e-01 0.0000000000000000e+00  -4.2422436252230857e-03 1.2242509936298326e-01 0.0000000000000000e+00  -3.6009810985991992e-03 1.2089776452874854e-01 0.0000000000000000e+00  -2.8613665075082205e-03 1.1920557910314819e-01 0.0000000000000000e+00  -2.0589176495099146e-03 1.1735969341674587e-01 0.0000000000000000e+00  -1.2267935556675232e-03 1.1537341570241791e-01 0.0000000000000000e+00  -3.9433951054535865e-04 1.1326136529656852e-01 0.0000000000000000e+00  4.1364048831444021e-04 1.1103929430769820e-01 0.0000000000000000e+00  1.1766391161265395e-03 1.0872368178706393e-01 0.0000000000000000e+00  1.8792019182605278e-03 1.0633132929813720e-01 0.0000000000000000e+00  2.5102884371037103e-03 1.0387865262022952e-01 0.0000000000000000e+00  3.0626478793108081e-03 1.0138203824747485e-01 0.0000000000000000e+00  3.5329051351600826e-03 9.8856647787845614e-02 0.0000000000000000e+00  3.9205024986285093e-03 9.6316856679527205e-02 0.0000000000000000e+00  4.2272484120603497e-03 9.3776102602360689e-02 0.0000000000000000e+00  4.4566504262982887e-03 9.1246352694282287e-02 0.0000000000000000e+00  4.6137645779058484e-03 8.8738538927599503e-02 0.0000000000000000e+00  4.7044935765061776e-03 8.6261888362093711e-02 0.0000000000000000e+00  4.7351361697639417e-03 8.3824977357197808e-02 0.0000000000000000e+00  4.7124532748306679e-03 8.1434422458785405e-02 0.0000000000000000e+00  4.6433685072675649e-03 7.9096243941193731e-02 0.0000000000000000e+00  4.5342762807250537e-03 7.6814977889768460e-02 0.0000000000000000e+00  4.3912481461065083e-03 7.4594487410592117e-02 0.0000000000000000e+00  4.2203761966154475e-03 7.2437293464722011e-02 0.0000000000000000e+00  4.0265519111041936e-03 7.0345628954595091e-02 0.0000000000000000e+00  3.8148565861541943e-03 6.8320598399568930e-02 0.0000000000000000e+00  3.5895514032694485e-03 6.6362722374684782e-02 0.0000000000000000e+00  3.3543766976208500e-03 6.4472202044586618e-02 0.0000000000000000e+00  3.1126566063306546e-03 6.2648599373805458e-02 0.0000000000000000e+00  2.8672682744979266e-03 6.0891111233607319e-02 0.0000000000000000e+00  2.6207114420329085e-03 5.9198716277882153e-02 0.0000000000000000e+00  2.3749668870603744e-03 5.7570007402387595e-02 0.0000000000000000e+00  2.1318948188981304e-03 5.6003531599534556e-02 0.0000000000000000e+00  1.8929735458419999e-03 5.4497503227618697e-02 0.0000000000000000e+00  1.6593281666734871e-03 5.3050222286006615e-02 0.0000000000000000e+00  1.4319601543297952e-03 5.1659725467363034e-02 0.0000000000000000e+00  1.2116469608530985e-03 5.0324143516042349e-02 0.0000000000000000e+00  9.9905892476192496e-04 4.9041533797978501e-02 0.0000000000000000e+00  7.9466427410565250e-04 4.7809908901400751e-02 0.0000000000000000e+00  5.9880938907354850e-04 4.6627411384475154e-02 0.0000000000000000e+00  4.1172239155257031e-04 4.5492112896544784e-02 0.0000000000000000e+00  2.3368587407613596e-04 4.4402131551482031e-02 0.0000000000000000e+00  6.4693491934383229e-05 4.3355716599949620e-02 0.0000000000000000e+00  -9.5172434179212348e-05 4.2351092267077631e-02 0.0000000000000000e+00  -2.4587561112263524e-04 4.1386556122926382e-02 0.0000000000000000e+00  -3.8752619982707304e-04 4.0460495709661946e-02 0.0000000000000000e+00  3.3898527900750583e-04 3.9063369561720310e-02 0.0000000000000000e+00  1.1722394083441396e-03 3.8506366660302056e-02 0.0000000000000000e+00  1.9770491330039792e-03 3.7902546941582606e-02 0.0000000000000000e+00  2.7508683834077540e-03 3.7254331344682860e-02 0.0000000000000000e+00  3.4914270352895318e-03 3.6564342822250476e-02 0.0000000000000000e+00  4.1965604303194756e-03 3.5835456294175359e-02 0.0000000000000000e+00  4.8643550285833777e-03 3.5070655815528547e-02 0.0000000000000000e+00  5.4930545412348823e-03 3.4273170122813099e-02 0.0000000000000000e+00  6.0811516070271880e-03 3.3446254323689209e-02 0.0000000000000000e+00  6.6273871996467169e-03 3.2593317559731994e-02 0.0000000000000000e+00  7.1306946782727955e-03 3.1717849869873256e-02 0.0000000000000000e+00  7.5902443456559348e-03 3.0823345753940145e-02 0.0000000000000000e+00  8.0054491997447307e-03 2.9913336139531996e-02 0.0000000000000000e+00  8.3759273520742413e-03 2.8991347554330936e-02 0.0000000000000000e+00  8.7015731658517011e-03 2.8060825582937460e-02 0.0000000000000000e+00  8.9824349674683338e-03 2.7125202057237303e-02 0.0000000000000000e+00  9.2187907969806474e-03 2.6187821446683114e-02 0.0000000000000000e+00  9.4111251553863611e-03 2.5251917977632082e-02 0.0000000000000000e+00  9.5600644985459025e-03 2.4320577024869078e-02 0.0000000000000000e+00  9.6664161558728343e-03 2.3396807090241226e-02 0.0000000000000000e+00  9.7311440403507199e-03 2.2483461550780119e-02 0.0000000000000000e+00  9.7553345528426077e-03 2.1583205560074325e-02 0.0000000000000000e+00  9.7402021595326682e-03 2.0698590426264395e-02 0.0000000000000000e+00  9.6870556395847254e-03 1.9831952531225432e-02 0.0000000000000000e+00  9.5972967729522976e-03 1.8985500470921519e-02 0.0000000000000000e+00  9.4723693664117894e-03 1.8161270031173848e-02 0.0000000000000000e+00  9.3138209404788584e-03 1.7361113190685118e-02 0.0000000000000000e+00  9.1232014991946379e-03 1.6586705247236704e-02 0.0000000000000000e+00  8.9021190891622765e-03 1.5839643995655652e-02 0.0000000000000000e+00  8.6521817043265937e-03 1.5121270151044893e-02 0.0000000000000000e+00  8.3750041509446024e-03 1.4432824084369928e-02 0.0000000000000000e+00  8.0722258456975490e-03 1.3775420676514442e-02 0.0000000000000000e+00  7.7454434119928013e-03 1.3150026192187395e-02 0.0000000000000000e+00  7.3962511259501942e-03 1.2557488796017396e-02 0.0000000000000000e+00  7.0262272146149572e-03 1.1998557698972130e-02 0.0000000000000000e+00  6.6369156771593826e-03 1.1473864953530720e-02 0.0000000000000000e+00  6.2298232641316434e-03 1.0983952871948421e-02 0.0000000000000000e+00  5.8064343156574933e-03 1.0529285100423738e-02 0.0000000000000000e+00  5.3681921105736734e-03 1.0110250078052318e-02 0.0000000000000000e+00  4.9165074905164986e-03 9.7271526498920249e-03 0.0000000000000000e+00  4.4527465025850825e-03 9.3802767689206406e-03 0.0000000000000000e+00  3.9782410045614298e-03 9.0698502345633990e-03 0.0000000000000000e+00  3.4943012543134835e-03 8.7959942379640804e-03 0.0000000000000000e+00  3.0022092537203052e-03 8.5588705334259611e-03 0.0000000000000000e+00  2.5031951994408685e-03 8.3585869931613703e-03 0.0000000000000000e+00  1.9984860807612265e-03 8.1952107619643281e-03 0.0000000000000000e+00  1.4892743698275788e-03 8.0687977957552941e-03 0.0000000000000000e+00  9.7675302494624268e-04 7.9794117571289347e-03 0.0000000000000000e+00  4.6206616085676109e-04 7.9270646499141530e-03 0.0000000000000000e+00  -5.3605935533725391e-05 7.9117594442324867e-03 0.0000000000000000e+00  -5.6911696901465697e-04 7.9335045493669053e-03 0.0000000000000000e+00  -1.0833114231721134e-03 7.9923039403813814e-03 0.0000000000000000e+00  -1.5950317534148952e-03 8.0881320815485748e-03 0.0000000000000000e+00  -2.1031046687692186e-03 8.2209403705962372e-03 0.0000000000000000e+00  -2.6063545088436005e-03 8.3906742292442771e-03 0.0000000000000000e+00  -3.1035746406085857e-03 8.5972675282369425e-03 0.0000000000000000e+00  -3.5935379137811375e-03 8.8406381851725974e-03 0.0000000000000000e+00  -4.0749998701796897e-03 9.1206791505432528e-03 0.0000000000000000e+00  -4.5466816169256151e-03 9.4372321930445077e-03 0.0000000000000000e+00  -5.0072762549260089e-03 9.7901174400902846e-03 0.0000000000000000e+00  -5.4554427314800506e-03 1.0179085190499825e-02 0.0000000000000000e+00  -5.8898011789189535e-03 1.0603872398385616e-02 0.0000000000000000e+00  -6.3089419373894041e-03 1.1064134821921257e-02 0.0000000000000000e+00  -6.7114160643947703e-03 1.1559459652673194e-02 0.0000000000000000e+00  -7.0957397399282604e-03 1.2089378323247340e-02 0.0000000000000000e+00  -7.4604126248665548e-03 1.2653315699329057e-02 0.0000000000000000e+00  -7.8038775639379535e-03 1.3250578912157576e-02 0.0000000000000000e+00  -8.1245755532748012e-03 1.3880412167380025e-02 0.0000000000000000e+00  -8.4209075705093169e-03 1.4541953012130560e-02 0.0000000000000000e+00  -8.6912824616030317e-03 1.5234179255582073e-02 0.0000000000000000e+00  -8.9340825044508815e-03 1.5955948542271479e-02 0.0000000000000000e+00  -9.1477042240418784e-03 1.6706041982961037e-02 0.0000000000000000e+00  -9.3305421835665134e-03 1.7482984764077725e-02 0.0000000000000000e+00  -9.4810343456210970e-03 1.8285213830352236e-02 0.0000000000000000e+00  -9.5976382492931334e-03 1.9111008950681647e-02 0.0000000000000000e+00  -9.6788539680612712e-03 1.9958466653142586e-02 0.0000000000000000e+00  -9.72326472331038