<?xml version="1.0"?>
<VTKFile type="UnstructuredGrid"  version="0.1"  >
<UnstructuredGrid>
<Piece  NumberOfPoints="16275" NumberOfCells="32468">
<Points>
<DataArray  type="Float64"  NumberOfComponents="3"  format="ascii">-0.5 0.5 0  0.5 0.5 0  0.5 -0.5 0  -0.5 -0.5 0  -1 1 0  1 1 0  1 -1 0  -1 -1 0  -0.4900000000000277 0.5 0  -0.4800000000000555 0.5 0  -0.4700000000000832 0.5 0  -0.4600000000001109 0.5 0  -0.4500000000001387 0.5 0  -0.4400000000001664 0.5 0  -0.4300000000001942 0.5 0  -0.4200000000002219 0.5 0  -0.4100000000002497 0.5 0  -0.4000000000002774 0.5 0  -0.3900000000003052 0.5 0  -0.3800000000003328 0.5 0  -0.3700000000003606 0.5 0  -0.3600000000003883 0.5 0  -0.3500000000004161 0.5 0  -0.3400000000004438 0.5 0  -0.3300000000004716 0.5 0  -0.3200000000004993 0.5 0  -0.3100000000005271 0.5 0  -0.3000000000005548 0.5 0  -0.2900000000005825 0.5 0  -0.2800000000006103 0.5 0  -0.2700000000006381 0.5 0  -0.2600000000006658 0.5 0  -0.2500000000006935 0.5 0  -0.2400000000007212 0.5 0  -0.230000000000749 0.5 0  -0.2200000000007767 0.5 0  -0.2100000000008044 0.5 0  -0.2000000000008322 0.5 0  -0.19000000000086 0.5 0  -0.1800000000008877 0.5 0  -0.1700000000009154 0.5 0  -0.1600000000009431 0.5 0  -0.1500000000009709 0.5 0  -0.1400000000009986 0.5 0  -0.1300000000010264 0.5 0  -0.1200000000010541 0.5 0  -0.1100000000010818 0.5 0  -0.1000000000011096 0.5 0  -0.09000000000113734 0.5 0  -0.08000000000116503 0.5 0  -0.07000000000119283 0.5 0  -0.06000000000122058 0.5 0  -0.05000000000124827 0.5 0  -0.04000000000127607 0.5 0  -0.03000000000130376 0.5 0  -0.02000000000133151 0.5 0  -0.01000000000135925 0.5 0  -1.376121439022882e-12 0.5 0  0.009999999998640763 0.5 0  0.01999999999866864 0.5 0  0.02999999999869629 0.5 0  0.03999999999872406 0.5 0  0.04999999999875182 0.5 0  0.05999999999877947 0.5 0  0.06999999999880724 0.5 0  0.079999999998835 0.5 0  0.08999999999886266 0.5 0  0.09999999999889042 0.5 0  0.1099999999989182 0.5 0  0.1199999999989459 0.5 0  0.1299999999989737 0.5 0  0.1399999999990014 0.5 0  0.1499999999990291 0.5 0  0.1599999999990568 0.5 0  0.1699999999990847 0.5 0  0.1799999999991124 0.5 0  0.1899999999991401 0.5 0  0.1999999999991678 0.5 0  0.2099999999991955 0.5 0  0.2199999999992234 0.5 0  0.2299999999992511 0.5 0  0.2399999999992788 0.5 0  0.2499999999993066 0.5 0  0.2599999999993342 0.5 0  0.269999999999362 0.5 0  0.2799999999993897 0.5 0  0.2899999999994175 0.5 0  0.2999999999994452 0.5 0  0.3099999999994729 0.5 0  0.3199999999995007 0.5 0  0.3299999999995284 0.5 0  0.3399999999995562 0.5 0  0.3499999999995839 0.5 0  0.3599999999996116 0.5 0  0.3699999999996393 0.5 0  0.379999999999667 0.5 0  0.3899999999996949 0.5 0  0.3999999999997226 0.5 0  0.4099999999997503 0.5 0  0.419999999999778 0.5 0  0.4299999999998058 0.5 0  0.4399999999998336 0.5 0  0.4499999999998613 0.5 0  0.4599999999998891 0.5 0  0.4699999999999167 0.5 0  0.4799999999999445 0.5 0  0.4899999999999722 0.5 0  0.5 0.4900000000000277 0  0.5 0.4800000000000555 0  0.5 0.4700000000000832 0  0.5 0.4600000000001109 0  0.5 0.4500000000001387 0  0.5 0.4400000000001664 0  0.5 0.4300000000001942 0  0.5 0.4200000000002219 0  0.5 0.4100000000002497 0  0.5 0.4000000000002774 0  0.5 0.3900000000003052 0  0.5 0.3800000000003328 0  0.5 0.3700000000003606 0  0.5 0.3600000000003883 0  0.5 0.3500000000004161 0  0.5 0.3400000000004438 0  0.5 0.3300000000004716 0  0.5 0.3200000000004993 0  0.5 0.3100000000005271 0  0.5 0.3000000000005548 0  0.5 0.2900000000005825 0  0.5 0.2800000000006103 0  0.5 0.2700000000006381 0  0.5 0.2600000000006658 0  0.5 0.2500000000006935 0  0.5 0.2400000000007212 0  0.5 0.230000000000749 0  0.5 0.2200000000007767 0  0.5 0.2100000000008044 0  0.5 0.2000000000008322 0  0.5 0.19000000000086 0  0.5 0.1800000000008877 0  0.5 0.1700000000009154 0  0.5 0.1600000000009431 0  0.5 0.1500000000009709 0  0.5 0.1400000000009986 0  0.5 0.1300000000010264 0  0.5 0.1200000000010541 0  0.5 0.1100000000010818 0  0.5 0.1000000000011096 0  0.5 0.09000000000113734 0  0.5 0.08000000000116503 0  0.5 0.07000000000119283 0  0.5 0.06000000000122058 0  0.5 0.05000000000124827 0  0.5 0.04000000000127607 0  0.5 0.03000000000130376 0  0.5 0.02000000000133151 0  0.5 0.01000000000135925 0  0.5 1.376121439022882e-12 0  0.5 -0.009999999998640763 0  0.5 -0.01999999999866864 0  0.5 -0.02999999999869629 0  0.5 -0.03999999999872406 0  0.5 -0.04999999999875182 0  0.5 -0.05999999999877947 0  0.5 -0.06999999999880724 0  0.5 -0.079999999998835 0  0.5 -0.08999999999886266 0  0.5 -0.09999999999889042 0  0.5 -0.1099999999989182 0  0.5 -0.1199999999989459 0  0.5 -0.1299999999989737 0  0.5 -0.1399999999990014 0  0.5 -0.1499999999990291 0  0.5 -0.1599999999990568 0  0.5 -0.1699999999990847 0  0.5 -0.1799999999991124 0  0.5 -0.1899999999991401 0  0.5 -0.1999999999991678 0  0.5 -0.2099999999991955 0  0.5 -0.2199999999992234 0  0.5 -0.2299999999992511 0  0.5 -0.2399999999992788 0  0.5 -0.2499999999993066 0  0.5 -0.2599999999993342 0  0.5 -0.269999999999362 0  0.5 -0.2799999999993897 0  0.5 -0.2899999999994175 0  0.5 -0.2999999999994452 0  0.5 -0.3099999999994729 0  0.5 -0.3199999999995007 0  0.5 -0.3299999999995284 0  0.5 -0.3399999999995562 0  0.5 -0.3499999999995839 0  0.5 -0.3599999999996116 0  0.5 -0.3699999999996393 0  0.5 -0.379999999999667 0  0.5 -0.3899999999996949 0  0.5 -0.3999999999997226 0  0.5 -0.4099999999997503 0  0.5 -0.419999999999778 0  0.5 -0.4299999999998058 0  0.5 -0.4399999999998336 0  0.5 -0.4499999999998613 0  0.5 -0.4599999999998891 0  0.5 -0.4699999999999167 0  0.5 -0.4799999999999445 0  0.5 -0.4899999999999722 0  0.4900000000000277 -0.5 0  0.4800000000000555 -0.5 0  0.4700000000000832 -0.5 0  0.4600000000001109 -0.5 0  0.4500000000001387 -0.5 0  0.4400000000001664 -0.5 0  0.4300000000001942 -0.5 0  0.4200000000002219 -0.5 0  0.4100000000002497 -0.5 0  0.4000000000002774 -0.5 0  0.3900000000003052 -0.5 0  0.3800000000003328 -0.5 0  0.3700000000003606 -0.5 0  0.3600000000003883 -0.5 0  0.3500000000004161 -0.5 0  0.3400000000004438 -0.5 0  0.3300000000004716 -0.5 0  0.3200000000004993 -0.5 0  0.3100000000005271 -0.5 0  0.3000000000005548 -0.5 0  0.2900000000005825 -0.5 0  0.2800000000006103 -0.5 0  0.2700000000006381 -0.5 0  0.2600000000006658 -0.5 0  0.2500000000006935 -0.5 0  0.2400000000007212 -0.5 0  0.230000000000749 -0.5 0  0.2200000000007767 -0.5 0  0.2100000000008044 -0.5 0  0.2000000000008322 -0.5 0  0.19000000000086 -0.5 0  0.1800000000008877 -0.5 0  0.1700000000009154 -0.5 0  0.1600000000009431 -0.5 0  0.1500000000009709 -0.5 0  0.1400000000009986 -0.5 0  0.1300000000010264 -0.5 0  0.1200000000010541 -0.5 0  0.1100000000010818 -0.5 0  0.1000000000011096 -0.5 0  0.09000000000113734 -0.5 0  0.08000000000116503 -0.5 0  0.07000000000119283 -0.5 0  0.06000000000122058 -0.5 0  0.05000000000124827 -0.5 0  0.04000000000127607 -0.5 0  0.03000000000130376 -0.5 0  0.02000000000133151 -0.5 0  0.01000000000135925 -0.5 0  1.376121439022882e-12 -0.5 0  -0.009999999998640763 -0.5 0  -0.01999999999866864 -0.5 0  -0.02999999999869629 -0.5 0  -0.03999999999872406 -0.5 0  -0.04999999999875182 -0.5 0  -0.05999999999877947 -0.5 0  -0.06999999999880724 -0.5 0  -0.079999999998835 -0.5 0  -0.08999999999886266 -0.5 0  -0.09999999999889042 -0.5 0  -0.1099999999989182 -0.5 0  -0.1199999999989459 -0.5 0  -0.1299999999989737 -0.5 0  -0.1399999999990014 -0.5 0  -0.1499999999990291 -0.5 0  -0.1599999999990568 -0.5 0  -0.1699999999990847 -0.5 0  -0.1799999999991124 -0.5 0  -0.1899999999991401 -0.5 0  -0.1999999999991678 -0.5 0  -0.2099999999991955 -0.5 0  -0.2199999999992234 -0.5 0  -0.2299999999992511 -0.5 0  -0.2399999999992788 -0.5 0  -0.2499999999993066 -0.5 0  -0.2599999999993342 -0.5 0  -0.269999999999362 -0.5 0  -0.2799999999993897 -0.5 0  -0.2899999999994175 -0.5 0  -0.2999999999994452 -0.5 0  -0.3099999999994729 -0.5 0  -0.3199999999995007 -0.5 0  -0.3299999999995284 -0.5 0  -0.3399999999995562 -0.5 0  -0.3499999999995839 -0.5 0  -0.3599999999996116 -0.5 0  -0.3699999999996393 -0.5 0  -0.379999999999667 -0.5 0  -0.3899999999996949 -0.5 0  -0.3999999999997226 -0.5 0  -0.4099999999997503 -0.5 0  -0.419999999999778 -0.5 0  -0.4299999999998058 -0.5 0  -0.4399999999998336 -0.5 0  -0.4499999999998613 -0.5 0  -0.4599999999998891 -0.5 0  -0.4699999999999167 -0.5 0  -0.4799999999999445 -0.5 0  -0.4899999999999722 -0.5 0  -0.5 -0.4900000000000277 0  -0.5 -0.4800000000000555 0  -0.5 -0.4700000000000832 0  -0.5 -0.4600000000001109 0  -0.5 -0.4500000000001387 0  -0.5 -0.4400000000001664 0  -0.5 -0.4300000000001942 0  -0.5 -0.4200000000002219 0  -0.5 -0.4100000000002497 0  -0.5 -0.4000000000002774 0  -0.5 -0.3900000000003052 0  -0.5 -0.3800000000003328 0  -0.5 -0.3700000000003606 0  -0.5 -0.3600000000003883 0  -0.5 -0.3500000000004161 0  -0.5 -0.3400000000004438 0  -0.5 -0.3300000000004716 0  -0.5 -0.3200000000004993 0  -0.5 -0.3100000000005271 0  -0.5 -0.3000000000005548 0  -0.5 -0.2900000000005825 0  -0.5 -0.2800000000006103 0  -0.5 -0.2700000000006381 0  -0.5 -0.2600000000006658 0  -0.5 -0.2500000000006935 0  -0.5 -0.2400000000007212 0  -0.5 -0.230000000000749 0  -0.5 -0.2200000000007767 0  -0.5 -0.2100000000008044 0  -0.5 -0.2000000000008322 0  -0.5 -0.19000000000086 0  -0.5 -0.1800000000008877 0  -0.5 -0.1700000000009154 0  -0.5 -0.1600000000009431 0  -0.5 -0.1500000000009709 0  -0.5 -0.1400000000009986 0  -0.5 -0.1300000000010264 0  -0.5 -0.1200000000010541 0  -0.5 -0.1100000000010818 0  -0.5 -0.1000000000011096 0  -0.5 -0.09000000000113734 0  -0.5 -0.08000000000116503 0  -0.5 -0.07000000000119283 0  -0.5 -0.06000000000122058 0  -0.5 -0.05000000000124827 0  -0.5 -0.04000000000127607 0  -0.5 -0.03000000000130376 0  -0.5 -0.02000000000133151 0  -0.5 -0.01000000000135925 0  -0.5 -1.376121439022882e-12 0  -0.5 0.009999999998640763 0  -0.5 0.01999999999866864 0  -0.5 0.02999999999869629 0  -0.5 0.03999999999872406 0  -0.5 0.04999999999875182 0  -0.5 0.05999999999877947 0  -0.5 0.06999999999880724 0  -0.5 0.079999999998835 0  -0.5 0.08999999999886266 0  -0.5 0.09999999999889042
[...]
<PointData  Vectors="f_27-0"> 
<DataArray  type="Float64"  Name="f_27-0"  NumberOfComponents="3" format="ascii">5.8794375299047201e-04 4.3537139264792829e-02 0.0000000000000000e+00  -8.8571950780114270e-04 4.3506434607167986e-02 0.0000000000000000e+00  4.0873467018214573e-04 4.1690103515764874e-02 0.0000000000000000e+00  -1.9653468669182788e-04 4.1666484773118108e-02 0.0000000000000000e+00  -1.7341132599068070e-03 6.7735383580750227e-03 0.0000000000000000e+00  1.8310892615275803e-03 6.6171976845133497e-03 0.0000000000000000e+00  -1.5958293415957020e-03 6.8093159509054904e-03 0.0000000000000000e+00  1.7351232313921390e-03 6.5988633067594468e-03 0.0000000000000000e+00  1.6358692927060995e-03 4.2919765609544962e-02 0.0000000000000000e+00  2.6461830700619505e-03 4.2240259729333769e-02 0.0000000000000000e+00  3.6201874777574681e-03 4.1501959538933292e-02 0.0000000000000000e+00  4.5541395555132634e-03 4.0708984767460425e-02 0.0000000000000000e+00  5.4418045547680429e-03 3.9864091211346327e-02 0.0000000000000000e+00  6.2839912662233906e-03 3.8972170981049430e-02 0.0000000000000000e+00  7.0753235525572548e-03 3.8036429682013706e-02 0.0000000000000000e+00  7.8156866424552267e-03 3.7062204563045473e-02 0.0000000000000000e+00  8.5014023633790872e-03 3.6054888586077929e-02 0.0000000000000000e+00  9.1314067039746111e-03 3.5016740922803505e-02 0.0000000000000000e+00  9.7066099207561932e-03 3.3955462866750830e-02 0.0000000000000000e+00  1.0223883795756937e-02 3.2874116861955190e-02 0.0000000000000000e+00  1.0683816756148568e-02 3.1777006097497097e-02 0.0000000000000000e+00  1.1086742023053020e-02 3.0668557614466564e-02 0.0000000000000000e+00  1.1431447073845028e-02 2.9555573911403656e-02 0.0000000000000000e+00  1.1720496186966438e-02 2.8440809782689404e-02 0.0000000000000000e+00  1.1953601266733930e-02 2.7326977692030616e-02 0.0000000000000000e+00  1.2131789819405979e-02 2.6220490522423257e-02 0.0000000000000000e+00  1.2257079751016552e-02 2.5124601089673137e-02 0.0000000000000000e+00  1.2330516566746923e-02 2.4042070827921168e-02 0.0000000000000000e+00  1.2353876477736265e-02 2.2976346803566743e-02 0.0000000000000000e+00  1.2329020306951110e-02 2.1930230041054957e-02 0.0000000000000000e+00  1.2258412364109527e-02 2.0906593735348547e-02 0.0000000000000000e+00  1.2142953320367422e-02 1.9908776065781869e-02 0.0000000000000000e+00  1.1985047593825947e-02 1.8937814280271567e-02 0.0000000000000000e+00  1.1788484462022875e-02 1.7996738282165387e-02 0.0000000000000000e+00  1.1552504372801789e-02 1.7087212851148340e-02 0.0000000000000000e+00  1.1282055075237503e-02 1.6211012311507893e-02 0.0000000000000000e+00  1.0977382591755297e-02 1.5367427375960885e-02 0.0000000000000000e+00  1.0642084726733026e-02 1.4560424466925121e-02 0.0000000000000000e+00  1.0276462170034939e-02 1.3788755598320117e-02 0.0000000000000000e+00  9.8847523646245616e-03 1.3054427303707905e-02 0.0000000000000000e+00  9.4671368241284505e-03 1.2359098814756688e-02 0.0000000000000000e+00  9.0267281214976534e-03 1.1702285499795007e-02 0.0000000000000000e+00  8.5645599269391810e-03 1.1083929412892511e-02 0.0000000000000000e+00  8.0821133991286903e-03 1.0502520934355136e-02 0.0000000000000000e+00  7.5833182406973244e-03 9.9637490279374814e-03 0.0000000000000000e+00  7.0657186143913324e-03 9.4637371414657348e-03 0.0000000000000000e+00  6.5357541097767506e-03 9.0023788336644345e-03 0.0000000000000000e+00  5.9903990270702640e-03 8.5827804891825867e-03 0.0000000000000000e+00  5.4354109555460745e-03 8.2018939203979801e-03 0.0000000000000000e+00  4.8689893975052256e-03 7.8610486875954344e-03 0.0000000000000000e+00  4.2929773978883697e-03 7.5600876309489867e-03 0.0000000000000000e+00  3.7097307471718592e-03 7.2980421990093587e-03 0.0000000000000000e+00  3.1191317559327754e-03 7.0770818837929371e-03 0.0000000000000000e+00  2.5226725014281777e-03 6.8938115380622238e-03 0.0000000000000000e+00  1.9224923686849049e-03 6.7513710715320112e-03 0.0000000000000000e+00  1.3182588989025512e-03 6.6473482297796467e-03 0.0000000000000000e+00  7.1393914373841887e-04 6.5826625533252801e-03 0.0000000000000000e+00  1.0540660720171328e-04 6.5591746356847922e-03 0.0000000000000000e+00  -5.0221286094740694e-04 6.5733919621831357e-03 0.0000000000000000e+00  -1.1083154914331025e-03 6.6269794776939121e-03 0.0000000000000000e+00  -1.7128572834585281e-03 6.7194007312317301e-03 0.0000000000000000e+00  -2.3143929222519287e-03 6.8520719325408609e-03 0.0000000000000000e+00  -2.9120211748963577e-03 7.0241991190754327e-03 0.0000000000000000e+00  -3.5037762440841050e-03 7.2356313055025948e-03 0.0000000000000000e+00  -4.0900430395102855e-03 7.4863805404584262e-03 0.0000000000000000e+00  -4.6675999082087961e-03 7.7771974976991089e-03 0.0000000000000000e+00  -5.2375721012360710e-03 8.1084683252010646e-03 0.0000000000000000e+00  -5.7977748987316988e-03 8.4786255237211585e-03 0.0000000000000000e+00  -6.3456711855615399e-03 8.8887136995730396e-03 0.0000000000000000e+00  -6.8816363338391967e-03 9.3389920652911726e-03 0.0000000000000000e+00  -7.4032327097826858e-03 9.8278039190191416e-03 0.0000000000000000e+00  -7.9084623952229826e-03 1.0357104054307250e-02 0.0000000000000000e+00  -8.3970643548403352e-03 1.0926420690840540e-02 0.0000000000000000e+00  -8.8659055809747304e-03 1.1534057477966160e-02 0.0000000000000000e+00  -9.3146513612147024e-03 1.2181232217798457e-02 0.0000000000000000e+00  -9.7399023394254859e-03 1.2867511489558388e-02 0.0000000000000000e+00  -1.0141756468407892e-02 1.3591221171893896e-02 0.0000000000000000e+00  -1.0516184562369628e-02 1.4352904215744733e-02 0.0000000000000000e+00  -1.0861410825468792e-02 1.5152455696702195e-02 0.0000000000000000e+00  -1.1177990393761354e-02 1.5986240991555087e-02 0.0000000000000000e+00  -1.1460200510732420e-02 1.6853796226480654e-02 0.0000000000000000e+00  -1.1709462289628381e-02 1.7755353228588486e-02 0.0000000000000000e+00  -1.1918696481476415e-02 1.8689857050172138e-02 0.0000000000000000e+00  -1.2092545842450522e-02 1.9654920516150455e-02 0.0000000000000000e+00  -1.2222348018009711e-02 2.0648067920260381e-02 0.0000000000000000e+00  -1.2309769952810991e-02 2.1665352341271565e-02 0.0000000000000000e+00  -1.2350584373726319e-02 2.2708558530478401e-02 0.0000000000000000e+00  -1.2344430634101370e-02 2.3771881761257874e-02 0.0000000000000000e+00  -1.2288829370343080e-02 2.4853788166921027e-02 0.0000000000000000e+00  -1.2181636256122548e-02 2.5949096119393604e-02 0.0000000000000000e+00  -1.2021612830612366e-02 2.7056750439355595e-02 0.0000000000000000e+00  -1.1806715002448941e-02 2.8173325317048095e-02 0.0000000000000000e+00  -1.1536983735737910e-02 2.9292285422472607e-02 0.0000000000000000e+00  -1.1210573558179882e-02 3.0411260837402802e-02 0.0000000000000000e+00  -1.0826376796045582e-02 3.1526304696564846e-02 0.0000000000000000e+00  -1.0384585341670137e-02 3.2632033154008672e-02 0.0000000000000000e+00  -9.8848656213112954e-03 3.3724392727628116e-02 0.0000000000000000e+00  -9.3279421540774631e-03 3.4797568596442473e-02 0.0000000000000000e+00  -8.7133356387105107e-03 3.5848149740381967e-02 0.0000000000000000e+00  -8.0421422235535858e-03 3.6871148474004412e-02 0.0000000000000000e+00  -7.3164834402170750e-03 3.7861145282776808e-02 0.0000000000000000e+00  -6.5377299272771881e-03 3.8814614867071308e-02 0.0000000000000000e+00  -5.7077646977031684e-03 3.9726939470432966e-02 0.0000000000000000e+00  -4.8303458607929827e-03 4.0591124983256469e-02 0.0000000000000000e+00  -3.9043634036648959e-03 4.1405791740346032e-02 0.0000000000000000e+00  -2.9370688291411851e-03 4.2164675362576225e-02 0.0000000000000000e+00  -1.9310071288996678e-03 4.2865774126314357e-02 0.0000000000000000e+00  -1.1123557346579610e-03 4.4593428239955178e-02 0.0000000000000000e+00  -1.3529973071400288e-03 4.5726883147782636e-02 0.0000000000000000e+00  -1.6097055969300543e-03 4.6919128734485803e-02 0.0000000000000000e+00  -1.8817283690419249e-03 4.8167626490050262e-02 0.0000000000000000e+00  -2.1713772856805386e-03 4.9479139090890925e-02 0.0000000000000000e+00  -2.4857141279226065e-03 5.0859451964872293e-02 0.0000000000000000e+00  -2.8104170257015120e-03 5.2303135703082614e-02 0.0000000000000000e+00  -3.1589711932577605e-03 5.3827639200053748e-02 0.0000000000000000e+00  -3.5291900525626116e-03 5.5426533555267117e-02 0.0000000000000000e+00  -3.9186994492726689e-03 5.7112805849271919e-02 0.0000000000000000e+00  -4.3342692723053484e-03 5.8890909861077048e-02 0.0000000000000000e+00  -4.7762088330876766e-03 6.0762292942422615e-02 0.0000000000000000e+00  -5.2434419013301691e-03 6.2740089213931094e-02 0.0000000000000000e+00  -5.7376494530405305e-03 6.4822822487761084e-02 0.0000000000000000e+00  -6.2613332565997137e-03 6.7025941524053084e-02 0.0000000000000000e+00  -6.8191642070885069e-03 6.9356586287275340e-02 0.0000000000000000e+00  -7.4147940210893323e-03 7.1817347593034292e-02 0.0000000000000000e+00  -8.0419700136772319e-03 7.4424269318365432e-02 0.0000000000000000e+00  -8.7034332472448826e-03 7.7182573560645465e-02 0.0000000000000000e+00  -9.4110467454521906e-03 8.0098950390682072e-02 0.0000000000000000e+00  -1.0164596324670759e-02 8.3189907995816659e-02 0.0000000000000000e+00  -1.0964344867944077e-02 8.6457370541407480e-02 0.0000000000000000e+00  -1.1818631857858768e-02 8.9915509292802856e-02 0.0000000000000000e+00  -1.2712117915584761e-02 9.3560912961113671e-02 0.0000000000000000e+00  -1.3640402376892555e-02 9.7419971955086268e-02 0.0000000000000000e+00  -1.4613724804814552e-02 1.0146082983834270e-01 0.0000000000000000e+00  -1.5612856973895911e-02 1.0572359263770048e-01 0.0000000000000000e+00  -1.6585635858801795e-02 1.1014667760889295e-01 0.0000000000000000e+00  -1.7539110672407352e-02 1.1475207990657824e-01 0.0000000000000000e+00  -1.8406573135563105e-02 1.1949080482525627e-01 0.0000000000000000e+00  -1.9095988425428520e-02 1.2431817192232271e-01 0.0000000000000000e+00  -1.9459737253611484e-02 1.2914947936251700e-01 0.0000000000000000e+00  -1.9404510715968416e-02 1.3392651938931116e-01 0.0000000000000000e+00  -1.8719062945704544e-02 1.3848424076866966e-01 0.0000000000000000e+00  -1.7126093963355585e-02 1.4267231572875499e-01 0.0000000000000000e+00  -1.4374174347660454e-02 1.4627387224593319e-01 0.0000000000000000e+00  -1.0075226845998465e-02 1.4898768886550809e-01 0.0000000000000000e+00  -3.8621167320357671e-03 1.5053805918652860e-01 0.0000000000000000e+00  4.7094568020550377e-03 1.5042983702285767e-01 0.0000000000000000e+00  1.5907758944352837e-02 1.4829390595940789e-01 0.0000000000000000e+00  2.9895377752323583e-02 1.4346255356766349e-01 0.0000000000000000e+00  4.6440625123232472e-02 1.3557253232463812e-01 0.0000000000000000e+00  6.4094035613039321e-02 1.2414418839429463e-01 0.0000000000000000e+00  8.0095554666281418e-02 1.0921258023568145e-01 0.0000000000000000e+00  8.9287859109234993e-02 9.1338189019040089e-02 0.0000000000000000e+00  8.4580097432199949e-02 7.1827458796544036e-02 0.0000000000000000e+00  5.8697441211295776e-02 5.3632852655578898e-02 0.0000000000000000e+00  1.1274428882844079e-02 4.0203898436161310e-02 0.0000000000000000e+00  -4.6545487194970710e-02 3.9355274033263610e-02 0.0000000000000000e+00  -8.7901161240108716e-02 5.5586688251219131e-02 0.0000000000000000e+00  -9.5175241600380586e-02 8.3122672406442041e-02 0.0000000000000000e+00  -8.0192917027851127e-02 1.1100498142987836e-01 0.0000000000000000e+00  -6.0368701857322050e-02 1.3149574297963987e-01 0.0000000000000000e+00  -4.3044736628051812e-02 1.4506135429742320e-01 0.0000000000000000e+00  -2.9030161663952513e-02 1.5349719765839295e-01 0.0000000000000000e+00  -1.7706486182742544e-02 1.5832047984063563e-01 0.0000000000000000e+00  -8.6374382906529712e-03 1.6034978313321560e-01 0.0000000000000000e+00  -1.4741957702571204e-03 1.6034120108505143e-01 0.0000000000000000e+00  4.0819175392199421e-03 1.5875502626673355e-01 0.0000000000000000e+00  8.3123407277734904e-03 1.5603827899919015e-01 0.0000000000000000e+00  1.1406314531888638e-02 1.5246995581280945e-01 0.0000000000000000e+00  1.3597759037122466e-02 1.4829469803136472e-01 0.0000000000000000e+00  1.5019025161242164e-02 1.4372665695506795e-01 0.0000000000000000e+00  1.5848108002439982e-02 1.3890893714326036e-01 0.0000000000000000e+00  1.6202844096936512e-02 1.3396437886574145e-01 0.0000000000000000e+00  1.6204713828297489e-02 1.2899321875962375e-01 0.0000000000000000e+00  1.5937782193926171e-02 1.2407012828895425e-01 0.0000000000000000e+00  1.5492945861124360e-02 1.1922836984254898e-01 0.0000000000000000e+00  1.4904482478435123e-02 1.1453813757721414e-01 0.0000000000000000e+00  1.4247089606935166e-02 1.0999578637011637e-01 0.0000000000000000e+00  1.3536756806291969e-02 1.0564065325077375e-01 0.0000000000000000e+00  1.2812388226305975e-02 1.0146670213390988e-01 0.0000000000000000e+00  1.2069978917323042e-02 9.7511466141859598e-02 0.0000000000000000e+00  1.1351591850406942e-02 9.3725360866253021e-02 0.0000000000000000e+00  1.0635710213683636e-02 9.0139512934953925e-02 0.0000000000000000e+00  9.9434165023833260e-03 8.6741016039197066e-02 0.0000000000000000e+00  9.2926362557522544e-03 8.3516400555365730e-02 0.0000000000000000e+00  8.6569071162640870e-03 8.0467458432188416e-02 0.0000000000000000e+00  8.0478453140551964e-03 7.7576560321675356e-02 0.0000000000000000e+00  7.4681624245228886e-03 7.4843306746923535e-02 0.0000000000000000e+00  6.9162206893118435e-03 7.2252932595113326e-02 0.0000000000000000e+00  6.3883143783783087e-03 6.9800255204548425e-02 0.0000000000000000e+00  5.8855380543678861e-03 6.7478323489048794e-02 0.0000000000000000e+00  5.4146532184639650e-03 6.5271868977957670e-02 0.0000000000000000e+00  4.9581425432357780e-03 6.3186771457858601e-02 0.0000000000000000e+00  4.5241428388178703e-03 6.1203059771682208e-02 0.0000000000000000e+00  4.1143243012283981e-03 5.9321431202800708e-02 0.0000000000000000e+00  3.7261161375237890e-03 5.7533084914216999e-02 0.0000000000000000e+00  3.3584978030343424e-03 5.5833259261879042e-02 0.0000000000000000e+00  3.0060373086080137e-03 5.4218938595921841e-02 0.0000000000000000e+00  2.6714465900229052e-03 5.2680532855169035e-02 0.0000000000000000e+00  2.3567826455173006e-03 5.1215577968891653e-02 0.0000000000000000e+00  2.0610919620426271e-03 4.9820962148509812e-02 0.0000000000000000e+00  1.7810601238012515e-03 4.8490432289197569e-02 0.0000000000000000e+00  1.5168837992573488e-03 4.7223843993365246e-02 0.0000000000000000e+00  1.2665288110671829e-03 4.6014955480349153e-02 0.0000000000000000e+00  1.0316357660467589e-03 4.4858375388423362e-02 0.0000000000000000e+00  8.0970595687241342e-04 4.3755412059621052e-02 0.0000000000000000e+00  6.0210604415950042e-04 4.2701172849457410e-02 0.0000000000000000e+00  1.3827414690931249e-03 4.1103631599499514e-02 0.0000000000000000e+00  2.3207920334266646e-03 4.0458349468160099e-02 0.0000000000000000e+00  3.2232856033267096e-03 3.9759459462220176e-02 0.0000000000000000e+00  4.0889354946374587e-03 3.9012086020333063e-02 0.0000000000000000e+00  4.9120175253128456e-03 3.8216635917429409e-02 0.0000000000000000e+00  5.6930177417716804e-03 3.7379783579718724e-02 0.0000000000000000e+00  6.4264928290887714e-03 3.6500323109420633e-02 0.0000000000000000e+00  7.1153412916779351e-03 3.5586637630607452e-02 0.0000000000000000e+00  7.7515391377923487e-03 3.4644148811599530e-02 0.0000000000000000e+00  8.3389419985929903e-03 3.3670947907059018e-02 0.0000000000000000e+00  8.8745426591248563e-03 3.2677861296829855e-02 0.0000000000000000e+00  9.3585483722762198e-03 3.1667145187953868e-02 0.0000000000000000e+00  9.7882119197881222e-03 3.0640744263923072e-02 0.0000000000000000e+00  1.0166144864130436e-02 2.9604615739814141e-02 0.0000000000000000e+00  1.0491077891952378e-02 2.8561341308871554e-02 0.0000000000000000e+00  1.0764696722071176e-02 2.7518784157327728e-02 0.0000000000000000e+00  1.0985251621685135e-02 2.6475297352741126e-02 0.0000000000000000e+00  1.1157076457897347e-02 2.5437844429209679e-02 0.0000000000000000e+00  1.1278899333310385e-02 2.4409039617666828e-02 0.0000000000000000e+00  1.1352980962084456e-02 2.3393263981499643e-02 0.0000000000000000e+00  1.1380831709216272e-02 2.2391853193858398e-02 0.0000000000000000e+00  1.1362919138962270e-02 2.1408433972100783e-02 0.0000000000000000e+00  1.1302765528967453e-02 2.0446987947950881e-02 0.0000000000000000e+00  1.1200575317268943e-02 1.9506141827471738e-02 0.0000000000000000e+00  1.1058582585073889e-02 1.8591445935471962e-02 0.0000000000000000e+00  1.0879685173345742e-02 1.7703780964286660e-02 0.0000000000000000e+00  1.0664354196680064e-02 1.6846080631594908e-02 0.0000000000000000e+00  1.0415977594610864e-02 1.6017467609105395e-02 0.0000000000000000e+00  1.0134272870405964e-02 1.5221028316143744e-02 0.0000000000000000e+00  9.8243993387639224e-03 1.4458672503246648e-02 0.0000000000000000e+00  9.4849674642190941e-03 1.3728061292646721e-02 0.0000000000000000e+00  9.1211907874805785e-03 1.3033286457948687e-02 0.0000000000000000e+00  8.7321736913663333e-03 1.2373720944176488e-02 0.0000000000000000e+00  8.3209347936214779e-03 1.1751440724279817e-02 0.0000000000000000e+00  7.8887801518211387e-03 1.1164900173324263e-02 0.0000000000000000e+00  7.4373315161280979e-03 1.0614896037516820e-02 0.0000000000000000e+00  6.9695840566920799e-03 1.0104866427219564e-02 0.0000000000000000e+00  6.4834503896335988e-03 9.6309828546544234e-03 0.0000000000000000e+00  5.9860614841012088e-03 9.1952370677906067e-03 0.0000000000000000e+00  5.4727903489698772e-03 8.7984699199107758e-03 0.0000000000000000e+00  4.9506848242594275e-03 8.4391595837800537e-03 0.0000000000000000e+00  4.4169089623774267e-03 8.1200470847843740e-03 0.0000000000000000e+00  3.8745817229141177e-03 7.8372190882703679e-03 0.0000000000000000e+00  3.3245705499163618e-03 7.5927313858109285e-03 0.0000000000000000e+00  2.7675486821055603e-03 7.3879043511316670e-03 0.0000000000000000e+00  2.2052527352712310e-03 7.2191601639028163e-03 0.0000000000000000e+00  1.6392455197858770e-03 7.0893860250472850e-03 0.0000000000000000e+00  1.0691204041632023e-03 6.9964975393217001e-03 0.0000000000000000e+00  4.9992674768766182e-04 6.9434892132035041e-03 0.0000000000000000e+00  -7.3455929700248963e-05 6.9304169633965552e-03 0.0000000000000000e+00  -6.4571943365940689e-04 6.9524175826561297e-03 0.0000000000000000e+00  -1.2162108372097216e-03 7.0140040507561500e-03 0.0000000000000000e+00  -1.7842896271938577e-03 7.1137756405814986e-03 0.0000000000000000e+00  -2.3489350228129381e-03 7.2520521359165663e-03 0.0000000000000000e+00  -2.9090608320737565e-03 7.4277534829470439e-03 0.0000000000000000e+00  -3.4630807483119661e-03 7.6417952969548460e-03 0.0000000000000000e+00  -4.0112451189247850e-03 7.8930007099079404e-03 0.0000000000000000e+00  -4.5499786503236279e-03 8.1837959091852520e-03 0.0000000000000000e+00  -5.0804588277382533e-03 8.5135970910352639e-03 0.0000000000000000e+00  -5.6002807686401481e-03 8.8814591995405884e-03 0.0000000000000000e+00  -6.1075895418233163e-03 9.2854796887009913e-03 0.0000000000000000e+00  -6.6015614353447946e-03 9.7292859723165700e-03 0.0000000000000000e+00  -7.0814515939501086e-03 1.0209114065045533e-02 0.0000000000000000e+00  -7.5440921355923998e-03 1.0727770505398099e-02 0.0000000000000000e+00  -7.9893577030819181e-03 1.1284920177093760e-02 0.0000000000000000e+00  -8.4150732491460999e-03 1.1878213547564551e-02 0.0000000000000000e+00  -8.8185897637843517e-03 1.2507290740570306e-02 0.0000000000000000e+00  -9.1999864622154329e-03 1.3172865217108958e-02 0.0000000000000000e+00  -9.5562337401125901e-03 1.3873567458588464e-02 0.0000000000000000e+00  -9.8866787768276919e-03 1.4608233141397673e-02 0.0000000000000000e+00  -1.0187278879752664e-02 1.5376990534113476e-02 0.0000000000000000e+00  -1.0458900962220566e-02 1.6178744342558022e-02 0.0000000000000000e+00  -1.0696971118505592e-02 1.7011350039970455e-02 0.0000000000000000e+00  -1.0902666727582520e-02 1.7871731452018993e-02 0.0000000000000000e+00  -1.1069098407080787e-02 1.8762804421296287e-02 0.0000000000000000e+00  -1.1201047394891995e-02 1.9681992608737771e-02 0.0000000000000000e+00  -1.1291642003891914e