<?xml version="1.0"?>
<VTKFile type="UnstructuredGrid"  version="0.1"  >
<UnstructuredGrid>
<Piece  NumberOfPoints="16275" NumberOfCells="32468">
<Points>
<DataArray  type="Float64"  NumberOfComponents="3"  format="ascii">-0.5 0.5 0  0.5 0.5 0  0.5 -0.5 0  -0.5 -0.5 0  -1 1 0  1 1 0  1 -1 0  -1 -1 0  -0.4900000000000277 0.5 0  -0.4800000000000555 0.5 0  -0.4700000000000832 0.5 0  -0.4600000000001109 0.5 0  -0.4500000000001387 0.5 0  -0.4400000000001664 0.5 0  -0.4300000000001942 0.5 0  -0.4200000000002219 0.5 0  -0.4100000000002497 0.5 0  -0.4000000000002774 0.5 0  -0.3900000000003052 0.5 0  -0.3800000000003328 0.5 0  -0.3700000000003606 0.5 0  -0.3600000000003883 0.5 0  -0.3500000000004161 0.5 0  -0.3400000000004438 0.5 0  -0.3300000000004716 0.5 0  -0.3200000000004993 0.5 0  -0.3100000000005271 0.5 0  -0.3000000000005548 0.5 0  -0.2900000000005825 0.5 0  -0.2800000000006103 0.5 0  -0.2700000000006381 0.5 0  -0.2600000000006658 0.5 0  -0.2500000000006935 0.5 0  -0.2400000000007212 0.5 0  -0.230000000000749 0.5 0  -0.2200000000007767 0.5 0  -0.2100000000008044 0.5 0  -0.2000000000008322 0.5 0  -0.19000000000086 0.5 0  -0.1800000000008877 0.5 0  -0.1700000000009154 0.5 0  -0.1600000000009431 0.5 0  -0.1500000000009709 0.5 0  -0.1400000000009986 0.5 0  -0.1300000000010264 0.5 0  -0.1200000000010541 0.5 0  -0.1100000000010818 0.5 0  -0.1000000000011096 0.5 0  -0.09000000000113734 0.5 0  -0.08000000000116503 0.5 0  -0.07000000000119283 0.5 0  -0.06000000000122058 0.5 0  -0.05000000000124827 0.5 0  -0.04000000000127607 0.5 0  -0.03000000000130376 0.5 0  -0.02000000000133151 0.5 0  -0.01000000000135925 0.5 0  -1.376121439022882e-12 0.5 0  0.009999999998640763 0.5 0  0.01999999999866864 0.5 0  0.02999999999869629 0.5 0  0.03999999999872406 0.5 0  0.04999999999875182 0.5 0  0.05999999999877947 0.5 0  0.06999999999880724 0.5 0  0.079999999998835 0.5 0  0.08999999999886266 0.5 0  0.09999999999889042 0.5 0  0.1099999999989182 0.5 0  0.1199999999989459 0.5 0  0.1299999999989737 0.5 0  0.1399999999990014 0.5 0  0.1499999999990291 0.5 0  0.1599999999990568 0.5 0  0.1699999999990847 0.5 0  0.1799999999991124 0.5 0  0.1899999999991401 0.5 0  0.1999999999991678 0.5 0  0.2099999999991955 0.5 0  0.2199999999992234 0.5 0  0.2299999999992511 0.5 0  0.2399999999992788 0.5 0  0.2499999999993066 0.5 0  0.2599999999993342 0.5 0  0.269999999999362 0.5 0  0.2799999999993897 0.5 0  0.2899999999994175 0.5 0  0.2999999999994452 0.5 0  0.3099999999994729 0.5 0  0.3199999999995007 0.5 0  0.3299999999995284 0.5 0  0.3399999999995562 0.5 0  0.3499999999995839 0.5 0  0.3599999999996116 0.5 0  0.3699999999996393 0.5 0  0.379999999999667 0.5 0  0.3899999999996949 0.5 0  0.3999999999997226 0.5 0  0.4099999999997503 0.5 0  0.419999999999778 0.5 0  0.4299999999998058 0.5 0  0.4399999999998336 0.5 0  0.4499999999998613 0.5 0  0.4599999999998891 0.5 0  0.4699999999999167 0.5 0  0.4799999999999445 0.5 0  0.4899999999999722 0.5 0  0.5 0.4900000000000277 0  0.5 0.4800000000000555 0  0.5 0.4700000000000832 0  0.5 0.4600000000001109 0  0.5 0.4500000000001387 0  0.5 0.4400000000001664 0  0.5 0.4300000000001942 0  0.5 0.4200000000002219 0  0.5 0.4100000000002497 0  0.5 0.4000000000002774 0  0.5 0.3900000000003052 0  0.5 0.3800000000003328 0  0.5 0.3700000000003606 0  0.5 0.3600000000003883 0  0.5 0.3500000000004161 0  0.5 0.3400000000004438 0  0.5 0.3300000000004716 0  0.5 0.3200000000004993 0  0.5 0.3100000000005271 0  0.5 0.3000000000005548 0  0.5 0.2900000000005825 0  0.5 0.2800000000006103 0  0.5 0.2700000000006381 0  0.5 0.2600000000006658 0  0.5 0.2500000000006935 0  0.5 0.2400000000007212 0  0.5 0.230000000000749 0  0.5 0.2200000000007767 0  0.5 0.2100000000008044 0  0.5 0.2000000000008322 0  0.5 0.19000000000086 0  0.5 0.1800000000008877 0  0.5 0.1700000000009154 0  0.5 0.1600000000009431 0  0.5 0.1500000000009709 0  0.5 0.1400000000009986 0  0.5 0.1300000000010264 0  0.5 0.1200000000010541 0  0.5 0.1100000000010818 0  0.5 0.1000000000011096 0  0.5 0.09000000000113734 0  0.5 0.08000000000116503 0  0.5 0.07000000000119283 0  0.5 0.06000000000122058 0  0.5 0.05000000000124827 0  0.5 0.04000000000127607 0  0.5 0.03000000000130376 0  0.5 0.02000000000133151 0  0.5 0.01000000000135925 0  0.5 1.376121439022882e-12 0  0.5 -0.009999999998640763 0  0.5 -0.01999999999866864 0  0.5 -0.02999999999869629 0  0.5 -0.03999999999872406 0  0.5 -0.04999999999875182 0  0.5 -0.05999999999877947 0  0.5 -0.06999999999880724 0  0.5 -0.079999999998835 0  0.5 -0.08999999999886266 0  0.5 -0.09999999999889042 0  0.5 -0.1099999999989182 0  0.5 -0.1199999999989459 0  0.5 -0.1299999999989737 0  0.5 -0.1399999999990014 0  0.5 -0.1499999999990291 0  0.5 -0.1599999999990568 0  0.5 -0.1699999999990847 0  0.5 -0.1799999999991124 0  0.5 -0.1899999999991401 0  0.5 -0.1999999999991678 0  0.5 -0.2099999999991955 0  0.5 -0.2199999999992234 0  0.5 -0.2299999999992511 0  0.5 -0.2399999999992788 0  0.5 -0.2499999999993066 0  0.5 -0.2599999999993342 0  0.5 -0.269999999999362 0  0.5 -0.2799999999993897 0  0.5 -0.2899999999994175 0  0.5 -0.2999999999994452 0  0.5 -0.3099999999994729 0  0.5 -0.3199999999995007 0  0.5 -0.3299999999995284 0  0.5 -0.3399999999995562 0  0.5 -0.3499999999995839 0  0.5 -0.3599999999996116 0  0.5 -0.3699999999996393 0  0.5 -0.379999999999667 0  0.5 -0.3899999999996949 0  0.5 -0.3999999999997226 0  0.5 -0.4099999999997503 0  0.5 -0.419999999999778 0  0.5 -0.4299999999998058 0  0.5 -0.4399999999998336 0  0.5 -0.4499999999998613 0  0.5 -0.4599999999998891 0  0.5 -0.4699999999999167 0  0.5 -0.4799999999999445 0  0.5 -0.4899999999999722 0  0.4900000000000277 -0.5 0  0.4800000000000555 -0.5 0  0.4700000000000832 -0.5 0  0.4600000000001109 -0.5 0  0.4500000000001387 -0.5 0  0.4400000000001664 -0.5 0  0.4300000000001942 -0.5 0  0.4200000000002219 -0.5 0  0.4100000000002497 -0.5 0  0.4000000000002774 -0.5 0  0.3900000000003052 -0.5 0  0.3800000000003328 -0.5 0  0.3700000000003606 -0.5 0  0.3600000000003883 -0.5 0  0.3500000000004161 -0.5 0  0.3400000000004438 -0.5 0  0.3300000000004716 -0.5 0  0.3200000000004993 -0.5 0  0.3100000000005271 -0.5 0  0.3000000000005548 -0.5 0  0.2900000000005825 -0.5 0  0.2800000000006103 -0.5 0  0.2700000000006381 -0.5 0  0.2600000000006658 -0.5 0  0.2500000000006935 -0.5 0  0.2400000000007212 -0.5 0  0.230000000000749 -0.5 0  0.2200000000007767 -0.5 0  0.2100000000008044 -0.5 0  0.2000000000008322 -0.5 0  0.19000000000086 -0.5 0  0.1800000000008877 -0.5 0  0.1700000000009154 -0.5 0  0.1600000000009431 -0.5 0  0.1500000000009709 -0.5 0  0.1400000000009986 -0.5 0  0.1300000000010264 -0.5 0  0.1200000000010541 -0.5 0  0.1100000000010818 -0.5 0  0.1000000000011096 -0.5 0  0.09000000000113734 -0.5 0  0.08000000000116503 -0.5 0  0.07000000000119283 -0.5 0  0.06000000000122058 -0.5 0  0.05000000000124827 -0.5 0  0.04000000000127607 -0.5 0  0.03000000000130376 -0.5 0  0.02000000000133151 -0.5 0  0.01000000000135925 -0.5 0  1.376121439022882e-12 -0.5 0  -0.009999999998640763 -0.5 0  -0.01999999999866864 -0.5 0  -0.02999999999869629 -0.5 0  -0.03999999999872406 -0.5 0  -0.04999999999875182 -0.5 0  -0.05999999999877947 -0.5 0  -0.06999999999880724 -0.5 0  -0.079999999998835 -0.5 0  -0.08999999999886266 -0.5 0  -0.09999999999889042 -0.5 0  -0.1099999999989182 -0.5 0  -0.1199999999989459 -0.5 0  -0.1299999999989737 -0.5 0  -0.1399999999990014 -0.5 0  -0.1499999999990291 -0.5 0  -0.1599999999990568 -0.5 0  -0.1699999999990847 -0.5 0  -0.1799999999991124 -0.5 0  -0.1899999999991401 -0.5 0  -0.1999999999991678 -0.5 0  -0.2099999999991955 -0.5 0  -0.2199999999992234 -0.5 0  -0.2299999999992511 -0.5 0  -0.2399999999992788 -0.5 0  -0.2499999999993066 -0.5 0  -0.2599999999993342 -0.5 0  -0.269999999999362 -0.5 0  -0.2799999999993897 -0.5 0  -0.2899999999994175 -0.5 0  -0.2999999999994452 -0.5 0  -0.3099999999994729 -0.5 0  -0.3199999999995007 -0.5 0  -0.3299999999995284 -0.5 0  -0.3399999999995562 -0.5 0  -0.3499999999995839 -0.5 0  -0.3599999999996116 -0.5 0  -0.3699999999996393 -0.5 0  -0.379999999999667 -0.5 0  -0.3899999999996949 -0.5 0  -0.3999999999997226 -0.5 0  -0.4099999999997503 -0.5 0  -0.419999999999778 -0.5 0  -0.4299999999998058 -0.5 0  -0.4399999999998336 -0.5 0  -0.4499999999998613 -0.5 0  -0.4599999999998891 -0.5 0  -0.4699999999999167 -0.5 0  -0.4799999999999445 -0.5 0  -0.4899999999999722 -0.5 0  -0.5 -0.4900000000000277 0  -0.5 -0.4800000000000555 0  -0.5 -0.4700000000000832 0  -0.5 -0.4600000000001109 0  -0.5 -0.4500000000001387 0  -0.5 -0.4400000000001664 0  -0.5 -0.4300000000001942 0  -0.5 -0.4200000000002219 0  -0.5 -0.4100000000002497 0  -0.5 -0.4000000000002774 0  -0.5 -0.3900000000003052 0  -0.5 -0.3800000000003328 0  -0.5 -0.3700000000003606 0  -0.5 -0.3600000000003883 0  -0.5 -0.3500000000004161 0  -0.5 -0.3400000000004438 0  -0.5 -0.3300000000004716 0  -0.5 -0.3200000000004993 0  -0.5 -0.3100000000005271 0  -0.5 -0.3000000000005548 0  -0.5 -0.2900000000005825 0  -0.5 -0.2800000000006103 0  -0.5 -0.2700000000006381 0  -0.5 -0.2600000000006658 0  -0.5 -0.2500000000006935 0  -0.5 -0.2400000000007212 0  -0.5 -0.230000000000749 0  -0.5 -0.2200000000007767 0  -0.5 -0.2100000000008044 0  -0.5 -0.2000000000008322 0  -0.5 -0.19000000000086 0  -0.5 -0.1800000000008877 0  -0.5 -0.1700000000009154 0  -0.5 -0.1600000000009431 0  -0.5 -0.1500000000009709 0  -0.5 -0.1400000000009986 0  -0.5 -0.1300000000010264 0  -0.5 -0.1200000000010541 0  -0.5 -0.1100000000010818 0  -0.5 -0.1000000000011096 0  -0.5 -0.09000000000113734 0  -0.5 -0.08000000000116503 0  -0.5 -0.07000000000119283 0  -0.5 -0.06000000000122058 0  -0.5 -0.05000000000124827 0  -0.5 -0.04000000000127607 0  -0.5 -0.03000000000130376 0  -0.5 -0.02000000000133151 0  -0.5 -0.01000000000135925 0  -0.5 -1.376121439022882e-12 0  -0.5 0.009999999998640763 0  -0.5 0.01999999999866864 0  -0.5 0.02999999999869629 0  -0.5 0.03999999999872406 0  -0.5 0.04999999999875182 0  -0.5 0.05999999999877947 0  -0.5 0.06999999999880724 0  -0.5 0.079999999998835 0  -0.5 0.08999999999886266 0  -0.5 0.09999999999889042
[...]
<PointData  Vectors="f_27-0"> 
<DataArray  type="Float64"  Name="f_27-0"  NumberOfComponents="3" format="ascii">1.6502888910360482e-04 4.6028281153576572e-02 0.0000000000000000e+00  -4.9734142541727313e-04 4.5943101994367186e-02 0.0000000000000000e+00  -1.3466599664701008e-03 3.7248770333453522e-02 0.0000000000000000e+00  1.4528484235409266e-03 3.7213849014009176e-02 0.0000000000000000e+00  -6.9781366975313498e-03 1.3836810615771196e-02 0.0000000000000000e+00  6.9909831216987302e-03 1.3860310040023017e-02 0.0000000000000000e+00  -5.6075292437759508e-03 1.2420247701783778e-02 0.0000000000000000e+00  5.5964386642084231e-03 1.2414967607561850e-02 0.0000000000000000e+00  1.2014436266715518e-03 4.5399384599869960e-02 0.0000000000000000e+00  2.2062450838987845e-03 4.4705441354871853e-02 0.0000000000000000e+00  3.1758722467443738e-03 4.3949586232853104e-02 0.0000000000000000e+00  4.1069107236545296e-03 4.3135262110184411e-02 0.0000000000000000e+00  4.9962332065366022e-03 4.2266257887095871e-02 0.0000000000000000e+00  5.8409893387904536e-03 4.1346640946888079e-02 0.0000000000000000e+00  6.6386283634023609e-03 4.0380801760174785e-02 0.0000000000000000e+00  7.3868735609828136e-03 3.9373232684464007e-02 0.0000000000000000e+00  8.0838199668249056e-03 3.8328607277620559e-02 0.0000000000000000e+00  8.7278753555826618e-03 3.7251799856228965e-02 0.0000000000000000e+00  9.3177982897056661e-03 3.6147677799681796e-02 0.0000000000000000e+00  9.8526514203264443e-03 3.5021082794532657e-02 0.0000000000000000e+00  1.0331830606563838e-02 3.3876920558978507e-02 0.0000000000000000e+00  1.0755063138582951e-02 3.2719980165900907e-02 0.0000000000000000e+00  1.1122376637667727e-02 3.1555013246814791e-02 0.0000000000000000e+00  1.1434097078597376e-02 3.0386544531150975e-02 0.0000000000000000e+00  1.1690797794760498e-02 2.9218996914834820e-02 0.0000000000000000e+00  1.1893339078088512e-02 2.8056627952548811e-02 0.0000000000000000e+00  1.2042775334450872e-02 2.6903418120095186e-02 0.0000000000000000e+00  1.2140383761634848e-02 2.5763133957721795e-02 0.0000000000000000e+00  1.2187615373475413e-02 2.4639354241270131e-02 0.0000000000000000e+00  1.2186095182016032e-02 2.3535323758072862e-02 0.0000000000000000e+00  1.2137579723017645e-02 2.2454099815314429e-02 0.0000000000000000e+00  1.2043928621107597e-02 2.1398485391750217e-02 0.0000000000000000e+00  1.1907094501611801e-02 2.0370957481613414e-02 0.0000000000000000e+00  1.1729077925988192e-02 1.9373806461667080e-02 0.0000000000000000e+00  1.1511963465917614e-02 1.8409037451338706e-02 0.0000000000000000e+00  1.1257832646914200e-02 1.7478448055719527e-02 0.0000000000000000e+00  1.0968791835671229e-02 1.6583608240623104e-02 0.0000000000000000e+00  1.0646946760362404e-02 1.5725846714847811e-02 0.0000000000000000e+00  1.0294355161118122e-02 1.4906329583391493e-02 0.0000000000000000e+00  9.9130887508269740e-03 1.4126036143103111e-02 0.0000000000000000e+00  9.5051417494441091e-03 1.3385776889788691e-02 0.0000000000000000e+00  9.0724786993008726e-03 1.2686182141513893e-02 0.0000000000000000e+00  8.6169960180979572e-03 1.2027787649400564e-02 0.0000000000000000e+00  8.1405463724686100e-03 1.1410980252844358e-02 0.0000000000000000e+00  7.6449051092637443e-03 1.0836080099469984e-02 0.0000000000000000e+00  7.1317835488228700e-03 1.0303275624716191e-02 0.0000000000000000e+00  6.6028282986354261e-03 9.8126940858362932e-03 0.0000000000000000e+00  6.0596295696686087e-03 9.3644208671246586e-03 0.0000000000000000e+00  5.5036900554159005e-03 8.9584625714845857e-03 0.0000000000000000e+00  4.9364690672327374e-03 8.5948011962389097e-03 0.0000000000000000e+00  4.3593626339290103e-03 8.2733947449576024e-03 0.0000000000000000e+00  3.7737246241893092e-03 7.9941677594250766e-03 0.0000000000000000e+00  3.1808386686293321e-03 7.7570561107468752e-03 0.0000000000000000e+00  2.5819525289057449e-03 7.5619635413676223e-03 0.0000000000000000e+00  1.9783016336419402e-03 7.4088379841498976e-03 0.0000000000000000e+00  1.3710504304515613e-03 7.2976000677552680e-03 0.0000000000000000e+00  7.6136823090910239e-04 7.2281876602993383e-03 0.0000000000000000e+00  1.5039774680845953e-04 7.2005813017971994e-03 0.0000000000000000e+00  -4.6072743120436759e-04 7.2147514711672078e-03 0.0000000000000000e+00  -1.0708679403224149e-03 7.2706860780269956e-03 0.0000000000000000e+00  -1.6788976254591252e-03 7.3684113289685703e-03 0.0000000000000000e+00  -2.2836537492147671e-03 7.5079588036709279e-03 0.0000000000000000e+00  -2.8839854042051532e-03 7.6893752634357515e-03 0.0000000000000000e+00  -3.4786822231776013e-03 7.9127048091422632e-03 0.0000000000000000e+00  -4.0665205547696951e-03 8.1780230340646066e-03 0.0000000000000000e+00  -4.6462343689762445e-03 8.4853915527690078e-03 0.0000000000000000e+00  -5.2165149824863356e-03 8.8348684478668192e-03 0.0000000000000000e+00  -5.7760011630039292e-03 9.2264875800025532e-03 0.0000000000000000e+00  -6.3232705557965882e-03 9.6602875918578805e-03 0.0000000000000000e+00  -6.8568650327978558e-03 1.0136237755230076e-02 0.0000000000000000e+00  -7.3752238019791803e-03 1.0654289900955410e-02 0.0000000000000000e+00  -7.8767650322777837e-03 1.1214337117972395e-02 0.0000000000000000e+00  -8.3598136775066695e-03 1.1816203120187897e-02 0.0000000000000000e+00  -8.8226415968678373e-03 1.2459627474815849e-02 0.0000000000000000e+00  -9.2634671119603933e-03 1.3144249146201638e-02 0.0000000000000000e+00  -9.6804014512278970e-03 1.3869607929655942e-02 0.0000000000000000e+00  -1.0071568137088070e-02 1.4635124412388390e-02 0.0000000000000000e+00  -1.0434961952146384e-02 1.5440055748863013e-02 0.0000000000000000e+00  -1.0768606405344040e-02 1.6283531752862488e-02 0.0000000000000000e+00  -1.1070432756825935e-02 1.7164487993171492e-02 0.0000000000000000e+00  -1.1338362025916562e-02 1.8081657453766355e-02 0.0000000000000000e+00  -1.1570327636070686e-02 1.9033630063328952e-02 0.0000000000000000e+00  -1.1764223116843718e-02 2.0018734042202703e-02 0.0000000000000000e+00  -1.1917992389818494e-02 2.1035075985857025e-02 0.0000000000000000e+00  -1.2029599495044984e-02 2.2080537312695221e-02 0.0000000000000000e+00  -1.2097052762454459e-02 2.3152710640922870e-02 0.0000000000000000e+00  -1.2118446379863380e-02 2.4249028457164954e-02 0.0000000000000000e+00  -1.2091968112163206e-02 2.5366568854654759e-02 0.0000000000000000e+00  -1.2015935703092685e-02 2.6502209108395448e-02 0.0000000000000000e+00  -1.1888762012627965e-02 2.7652556004762099e-02 0.0000000000000000e+00  -1.1709099768135198e-02 2.8813949696833416e-02 0.0000000000000000e+00  -1.1475731317572164e-02 2.9982555942701994e-02 0.0000000000000000e+00  -1.1187671282194698e-02 3.1154195693548728e-02 0.0000000000000000e+00  -1.0844162863084090e-02 3.2324636787701339e-02 0.0000000000000000e+00  -1.0444739756046690e-02 3.3489350387328955e-02 0.0000000000000000e+00  -9.9891638602152416e-03 3.4643719982345111e-02 0.0000000000000000e+00  -9.4775363198468677e-03 3.5782912235116843e-02 0.0000000000000000e+00  -8.9102341882972766e-03 3.6902094630898247e-02 0.0000000000000000e+00  -8.2879905249676634e-03 3.7996350483780028e-02 0.0000000000000000e+00  -7.6118302892610075e-03 3.9060792834299508e-02 0.0000000000000000e+00  -6.8831719809054016e-03 4.0090492268776388e-02 0.0000000000000000e+00  -6.1037064246617367e-03 4.1080629918188262e-02 0.0000000000000000e+00  -5.2755212168737013e-03 4.2026542650024951e-02 0.0000000000000000e+00  -4.4009716562547650e-03 4.2923664128327405e-02 0.0000000000000000e+00  -3.4827470943883210e-03 4.3767775473281804e-02 0.0000000000000000e+00  -2.5238490833287565e-03 4.4554808029805187e-02 0.0000000000000000e+00  -1.5275578586823372e-03 4.5281036400519684e-02 0.0000000000000000e+00  -6.5501810861770353e-04 4.7009135357209068e-02 0.0000000000000000e+00  -8.1567690757729195e-04 4.8116020910229484e-02 0.0000000000000000e+00  -9.7810402302125942e-04 4.9264635641590525e-02 0.0000000000000000e+00  -1.1409210835392079e-03 5.0455729994498939e-02 0.0000000000000000e+00  -1.3025593728902090e-03 5.1689996028607688e-02 0.0000000000000000e+00  -1.4612354762806002e-03 5.2967868177518695e-02 0.0000000000000000e+00  -1.6150457689852538e-03 5.4289590856007632e-02 0.0000000000000000e+00  -1.7618070518261508e-03 5.5655413558959865e-02 0.0000000000000000e+00  -1.8993233058239320e-03 5.7064989828612488e-02 0.0000000000000000e+00  -2.0251517036886818e-03 5.8517863071117261e-02 0.0000000000000000e+00  -2.1368391919162010e-03 6.0013305050297713e-02 0.0000000000000000e+00  -2.2319522022876642e-03 6.1550099127940169e-02 0.0000000000000000e+00  -2.3080654191141737e-03 6.3126781554828051e-02 0.0000000000000000e+00  -2.3629302730229728e-03 6.4741277895640312e-02 0.0000000000000000e+00  -2.3945452159458854e-03 6.6391212069137159e-02 0.0000000000000000e+00  -2.4012267051323516e-03 6.8073666805712710e-02 0.0000000000000000e+00  -2.3817631237015554e-03 6.9785241975514806e-02 0.0000000000000000e+00  -2.3355579473358806e-03 7.1522027407198471e-02 0.0000000000000000e+00  -2.2626517688771729e-03 7.3279480751884105e-02 0.0000000000000000e+00  -2.1638581938436627e-03 7.5052598098203888e-02 0.0000000000000000e+00  -2.0409127646863136e-03 7.6836010271478711e-02 0.0000000000000000e+00  -1.8964184132391026e-03 7.8623591496828169e-02 0.0000000000000000e+00  -1.7339419357671559e-03 8.0408922587523551e-02 0.0000000000000000e+00  -1.5579276200183866e-03 8.2185000713582160e-02 0.0000000000000000e+00  -1.3736551839592809e-03 8.3944706432739005e-02 0.0000000000000000e+00  -1.1870881100627907e-03 8.5680373451918382e-02 0.0000000000000000e+00  -1.0047087296942456e-03 8.7384191854436480e-02 0.0000000000000000e+00  -8.3331493170736787e-04 8.9048088690082239e-02 0.0000000000000000e+00  -6.7960799814542627e-04 9.0664201225430410e-02 0.0000000000000000e+00  -5.5018060094139457e-04 9.2224337855093902e-02 0.0000000000000000e+00  -4.5084265460086171e-04 9.3720595623199621e-02 0.0000000000000000e+00  -3.8658453565811756e-04 9.5145251391670710e-02 0.0000000000000000e+00  -3.6117149936016485e-04 9.6490881324201652e-02 0.0000000000000000e+00  -3.7699277708783634e-04 9.7750367217533926e-02 0.0000000000000000e+00  -4.3473941278280139e-04 9.8917196660775503e-02 0.0000000000000000e+00  -5.3352258362249303e-04 9.9985150813164558e-02 0.0000000000000000e+00  -6.7051800003792913e-04 1.0094873872402227e-01 0.0000000000000000e+00  -8.4147242784746179e-04 1.0180307007841545e-01 0.0000000000000000e+00  -1.0405874958530582e-03 1.0254389045755627e-01 0.0000000000000000e+00  -1.2607380536420927e-03 1.0316754236232267e-01 0.0000000000000000e+00  -1.4940612860861093e-03 1.0367122861273016e-01 0.0000000000000000e+00  -1.7320749431948492e-03 1.0405278508911918e-01 0.0000000000000000e+00  -1.9659437076634916e-03 1.0431063300740784e-01 0.0000000000000000e+00  -2.1872404134005248e-03 1.0444404848291285e-01 0.0000000000000000e+00  -2.3880010446282831e-03 1.0445297712467176e-01 0.0000000000000000e+00  -2.5611216793166389e-03 1.0433800478206610e-01 0.0000000000000000e+00  -2.7005663473913255e-03 1.0410032284597188e-01 0.0000000000000000e+00  -2.8016962650830330e-03 1.0374188710367041e-01 0.0000000000000000e+00  -2.8613076649384533e-03 1.0326523286939344e-01 0.0000000000000000e+00  -2.8774822403156860e-03 1.0267346801637425e-01 0.0000000000000000e+00  -2.8499053316374170e-03 1.0197022223462705e-01 0.0000000000000000e+00  -2.7797368575804859e-03 1.0115979568717282e-01 0.0000000000000000e+00  -2.6692114326268132e-03 1.0024693410333101e-01 0.0000000000000000e+00  -2.5215729962666782e-03 9.9236791502344310e-02 0.0000000000000000e+00  -2.3410129248220089e-03 9.8134915840469031e-02 0.0000000000000000e+00  -2.1324925304945777e-03 9.6947297440122662e-02 0.0000000000000000e+00  -1.9013820216594204e-03 9.5680269406830859e-02 0.0000000000000000e+00  -1.6533641889493293e-03 9.4340274300317231e-02 0.0000000000000000e+00  -1.3940631721043109e-03 9.2934110254114216e-02 0.0000000000000000e+00  -1.1290903626402261e-03 9.1468567223716379e-02 0.0000000000000000e+00  -8.6364652520261494e-04 8.9950523019716525e-02 0.0000000000000000e+00  -6.0281885526961238e-04 8.8386866831603642e-02 0.0000000000000000e+00  -3.5102084658456695e-04 8.6784476421627524e-02 0.0000000000000000e+00  -1.1216656353396986e-04 8.5149997844048184e-02 0.0000000000000000e+00  1.1030948969601086e-04 8.3490109007053628e-02 0.0000000000000000e+00  3.1374075569393138e-04 8.1811048142445969e-02 0.0000000000000000e+00  4.9600943875032790e-04 8.0118870689089725e-02 0.0000000000000000e+00  6.5557114255153847e-04 7.8419422839822242e-02 0.0000000000000000e+00  7.9138922100440627e-04 7.6718108183682965e-02 0.0000000000000000e+00  9.0299656601093862e-04 7.5020096977070044e-02 0.0000000000000000e+00  9.9041393208049665e-04 7.3329999779238611e-02 0.0000000000000000e+00  1.0539316616019418e-03 7.1652351127529781e-02 0.0000000000000000e+00  1.0943518368505762e-03 6.9990946579222599e-02 0.0000000000000000e+00  1.1128114078516296e-03 6.8349501134017748e-02 0.0000000000000000e+00  1.1105429951123360e-03 6.6731130712666148e-02 0.0000000000000000e+00  1.0889568942107173e-03 6.5138753320612128e-02 0.0000000000000000e+00  1.0498163472171872e-03 6.3574719536559882e-02 0.0000000000000000e+00  9.9459039500107574e-04 6.2041286291149071e-02 0.0000000000000000e+00  9.2515917263741483e-04 6.0540186572940975e-02 0.0000000000000000e+00  8.4327666418726975e-04 5.9072851891164541e-02 0.0000000000000000e+00  7.5063530853209325e-04 5.7640543995139432e-02 0.0000000000000000e+00  6.4892097477470257e-04 5.6244175772251381e-02 0.0000000000000000e+00  5.3977493878516953e-04 5.4884391623427752e-02 0.0000000000000000e+00  4.2475462061361812e-04 5.3561697978618324e-02 0.0000000000000000e+00  3.0524854016523501e-04 5.2276303525202468e-02 0.0000000000000000e+00  1.8266142306716106e-04 5.1028338474741114e-02 0.0000000000000000e+00  5.8257667965045277e-05 4.9817649574700890e-02 0.0000000000000000e+00  -6.6882247497109437e-05 4.8644075363007827e-02 0.0000000000000000e+00  -1.9171495745313818e-04 4.7507208482402100e-02 0.0000000000000000e+00  -3.1532714294937479e-04 4.6406631637483604e-02 0.0000000000000000e+00  -4.3686601279589862e-04 4.5341790209708646e-02 0.0000000000000000e+00  -5.5561682575688224e-04 4.4312046301529552e-02 0.0000000000000000e+00  -6.7096121114392415e-04 4.3316753025090755e-02 0.0000000000000000e+00  -7.8237742561169336e-04 4.2355164539855675e-02 0.0000000000000000e+00  -8.8933190886146866e-04 4.1426492616993160e-02 0.0000000000000000e+00  -9.9151220265818077e-04 4.0529973293415421e-02 0.0000000000000000e+00  -1.0885717990384927e-03 3.9664776108839721e-02 0.0000000000000000e+00  -1.1802251234345449e-03 3.8830057369096629e-02 0.0000000000000000e+00  -1.2663128621690101e-03 3.8024992861601457e-02 0.0000000000000000e+00  -5.9430320031355092e-04 3.6818430166721476e-02 0.0000000000000000e+00  1.3711927383390650e-04 3.6345627958452864e-02 0.0000000000000000e+00  8.4561554146144607e-04 3.5832032050029959e-02 0.0000000000000000e+00  1.5291687269661466e-03 3.5279503408424749e-02 0.0000000000000000e+00  2.1859595013874840e-03 3.4690066188929863e-02 0.0000000000000000e+00  2.8142196859553353e-03 3.4065949579748588e-02 0.0000000000000000e+00  3.4123641659744601e-03 3.3409477076050471e-02 0.0000000000000000e+00  3.9788944804440328e-03 3.2723177848307007e-02 0.0000000000000000e+00  4.5124909713836177e-03 3.2009623053370427e-02 0.0000000000000000e+00  5.0120073913188234e-03 3.1271522886680003e-02 0.0000000000000000e+00  5.4764202818918363e-03 3.0511675756767269e-02 0.0000000000000000e+00  5.9048790744695373e-03 2.9732907638934221e-02 0.0000000000000000e+00  6.2967091877426480e-03 2.8938104037763413e-02 0.0000000000000000e+00  6.6513812895212208e-03 2.8130174680618604e-02 0.0000000000000000e+00  6.9685770567961582e-03 2.7312001524352220e-02 0.0000000000000000e+00  7.2480917647087294e-03 2.6486481180946535e-02 0.0000000000000000e+00  7.4899026124530099e-03 2.5656475293854765e-02 0.0000000000000000e+00  7.6941494233809327e-03 2.4824789697789104e-02 0.0000000000000000e+00  7.8610935062293479e-03 2.3994141463527408e-02 0.0000000000000000e+00  7.9911468752544394e-03 2.3167211751818784e-02 0.0000000000000000e+00  8.0848575122916145e-03 2.2346589698063451e-02 0.0000000000000000e+00  8.1428886782531056e-03 2.1534733039669685e-02 0.0000000000000000e+00  8.1660222082274997e-03 2.0734031563533362e-02 0.0000000000000000e+00  8.1551398579053566e-03 1.9946722249203481e-02 0.0000000000000000e+00  8.1112151681441112e-03 1.9174952679290286e-02 0.0000000000000000e+00  8.0352844566563067e-03 1.8420740972448130e-02 0.0000000000000000e+00  7.9284919488214565e-03 1.7685968079464844e-02 0.0000000000000000e+00  7.7920105266105306e-03 1.6972376769476629e-02 0.0000000000000000e+00  7.6270856471006053e-03 1.6281648761226258e-02 0.0000000000000000e+00  7.4349923468864767e-03 1.5615254480956417e-02 0.0000000000000000e+00  7.2170383945266590e-03 1.4974579269390227e-02 0.0000000000000000e+00  6.9745768263271826e-03 1.4360903606235598e-02 0.0000000000000000e+00  6.7089499305306617e-03 1.3775372521657121e-02 0.0000000000000000e+00  6.4215284377305915e-03 1.3219020435526170e-02 0.0000000000000000e+00  6.1136880614112189e-03 1.2692796659793060e-02 0.0000000000000000e+00  5.7868038644801464e-03 1.2197528694090725e-02 0.0000000000000000e+00  5.4422361214392263e-03 1.1733965648877819e-02 0.0000000000000000e+00  5.0813508434544210e-03 1.1302761119720629e-02 0.0000000000000000e+00  4.7054965747277211e-03 1.0904499441520795e-02 0.0000000000000000e+00  4.3160102828639739e-03 1.0539669625187731e-02 0.0000000000000000e+00  3.9142084283063190e-03 1.0208726307047113e-02 0.0000000000000000e+00  3.5013907204476244e-03 9.9120550467904512e-03 0.0000000000000000e+00  3.0788520931887761e-03 9.6499337563811967e-03 0.0000000000000000e+00  2.6478759107533647e-03 9.4226529664233512e-03 0.0000000000000000e+00  2.2097067797464029e-03 9.2304375944408726e-03 0.0000000000000000e+00  1.7655974439644462e-03 9.0734551771126833e-03 0.0000000000000000e+00  1.3167783330450909e-03 8.9518466127718587e-03 0.0000000000000000e+00  8.6448207458629848e-04 8.8657365228123133e-03 0.0000000000000000e+00  4.0990623634401036e-04 8.8151821811315659e-03 0.0000000000000000e+00  -4.5719594571161112e-05 8.8002178516713887e-03 0.0000000000000000e+00  -5.0119315106308493e-04 8.8208574910784744e-03 0.0000000000000000e+00  -9.5530423994888783e-04 8.8770905460623765e-03 0.0000000000000000e+00  -1.4068447865188060e-03 8.9688629616581552e-03 0.0000000000000000e+00  -1.8545923138014949e-03 9.0960789717689783e-03 0.0000000000000000e+00  -2.2973308825383117e-03 9.2586165755707238e-03 0.0000000000000000e+00  -2.7338195677349443e-03 9.4563222451833299e-03 0.0000000000000000e+00  -3.1628098447493537e-03 9.6890122165589412e-03 0.0000000000000000e+00  -3.5830452562561330e-03 9.9564559197083853e-03 0.0000000000000000e+00  -3.9932501650004528e-03 1.0258364845389644e-02 0.0000000000000000e+00  -4.3921380274310603e-03 1.0594405605754255e-02 0.0000000000000000e+00  -4.7784031696782373e-03 1.0964172821598046e-02 0.0000000000000000e+00  -5.1507255813773578e-03 1.1367223021551019e-02 0.0000000000000000e+00  -5.5077715183023002e-03 1.1803032479661314e-02 0.0000000000000000e+00  -5.8481951060955512e-03 1.2270995376271823e-02 0.0000000000000000e+00  -6.1706370441697717e-03 1.2770450145783544e-02 0.0000000000000000e+00  -6.4737479779775828e-03 1.3300622921500154e-02 0.0000000000000000e+00  -6.7561517177026822e-03 1.3860626429309811e-02 0.0000000000000000e+00  -7.0164898832590795e-03 1.4449516930229462e-02 0.0000000000000000e+00  -7.2534022260087950e-03 1.5066240209313081e-02 0.0000000000000000e+00  -7.4655508117859202e-03 1.5709606732798573e-02 0.0000000000000000e+00  -7.6516118124593663e-03 1.6378317404359514e-02 0.0000000000000000e+00  -7.8102905675239507e-03 1.7071010393402881e-02 0.0000000000000000e+00  -7.9403260947543096e-03 1.7786100558899835e-02 0.0000000000000000e+00  -8.0405104304048115e-03 1.8521947429112104e-02 0.0000000000000000e+00  -8.1096842571163636e-03 1.9276772734720345e-02 0.0000000000000000e+00  -8.1467487077618132e-03 2.0048664199550172e-02 0.0000000000000