<?xml version="1.0"?>
<VTKFile type="UnstructuredGrid"  version="0.1"  >
<UnstructuredGrid>
<Piece  NumberOfPoints="16275" NumberOfCells="32468">
<Points>
<DataArray  type="Float64"  NumberOfComponents="3"  format="ascii">-0.5 0.5 0  0.5 0.5 0  0.5 -0.5 0  -0.5 -0.5 0  -1 1 0  1 1 0  1 -1 0  -1 -1 0  -0.4900000000000277 0.5 0  -0.4800000000000555 0.5 0  -0.4700000000000832 0.5 0  -0.4600000000001109 0.5 0  -0.4500000000001387 0.5 0  -0.4400000000001664 0.5 0  -0.4300000000001942 0.5 0  -0.4200000000002219 0.5 0  -0.4100000000002497 0.5 0  -0.4000000000002774 0.5 0  -0.3900000000003052 0.5 0  -0.3800000000003328 0.5 0  -0.3700000000003606 0.5 0  -0.3600000000003883 0.5 0  -0.3500000000004161 0.5 0  -0.3400000000004438 0.5 0  -0.3300000000004716 0.5 0  -0.3200000000004993 0.5 0  -0.3100000000005271 0.5 0  -0.3000000000005548 0.5 0  -0.2900000000005825 0.5 0  -0.2800000000006103 0.5 0  -0.2700000000006381 0.5 0  -0.2600000000006658 0.5 0  -0.2500000000006935 0.5 0  -0.2400000000007212 0.5 0  -0.230000000000749 0.5 0  -0.2200000000007767 0.5 0  -0.2100000000008044 0.5 0  -0.2000000000008322 0.5 0  -0.19000000000086 0.5 0  -0.1800000000008877 0.5 0  -0.1700000000009154 0.5 0  -0.1600000000009431 0.5 0  -0.1500000000009709 0.5 0  -0.1400000000009986 0.5 0  -0.1300000000010264 0.5 0  -0.1200000000010541 0.5 0  -0.1100000000010818 0.5 0  -0.1000000000011096 0.5 0  -0.09000000000113734 0.5 0  -0.08000000000116503 0.5 0  -0.07000000000119283 0.5 0  -0.06000000000122058 0.5 0  -0.05000000000124827 0.5 0  -0.04000000000127607 0.5 0  -0.03000000000130376 0.5 0  -0.02000000000133151 0.5 0  -0.01000000000135925 0.5 0  -1.376121439022882e-12 0.5 0  0.009999999998640763 0.5 0  0.01999999999866864 0.5 0  0.02999999999869629 0.5 0  0.03999999999872406 0.5 0  0.04999999999875182 0.5 0  0.05999999999877947 0.5 0  0.06999999999880724 0.5 0  0.079999999998835 0.5 0  0.08999999999886266 0.5 0  0.09999999999889042 0.5 0  0.1099999999989182 0.5 0  0.1199999999989459 0.5 0  0.1299999999989737 0.5 0  0.1399999999990014 0.5 0  0.1499999999990291 0.5 0  0.1599999999990568 0.5 0  0.1699999999990847 0.5 0  0.1799999999991124 0.5 0  0.1899999999991401 0.5 0  0.1999999999991678 0.5 0  0.2099999999991955 0.5 0  0.2199999999992234 0.5 0  0.2299999999992511 0.5 0  0.2399999999992788 0.5 0  0.2499999999993066 0.5 0  0.2599999999993342 0.5 0  0.269999999999362 0.5 0  0.2799999999993897 0.5 0  0.2899999999994175 0.5 0  0.2999999999994452 0.5 0  0.3099999999994729 0.5 0  0.3199999999995007 0.5 0  0.3299999999995284 0.5 0  0.3399999999995562 0.5 0  0.3499999999995839 0.5 0  0.3599999999996116 0.5 0  0.3699999999996393 0.5 0  0.379999999999667 0.5 0  0.3899999999996949 0.5 0  0.3999999999997226 0.5 0  0.4099999999997503 0.5 0  0.419999999999778 0.5 0  0.4299999999998058 0.5 0  0.4399999999998336 0.5 0  0.4499999999998613 0.5 0  0.4599999999998891 0.5 0  0.4699999999999167 0.5 0  0.4799999999999445 0.5 0  0.4899999999999722 0.5 0  0.5 0.4900000000000277 0  0.5 0.4800000000000555 0  0.5 0.4700000000000832 0  0.5 0.4600000000001109 0  0.5 0.4500000000001387 0  0.5 0.4400000000001664 0  0.5 0.4300000000001942 0  0.5 0.4200000000002219 0  0.5 0.4100000000002497 0  0.5 0.4000000000002774 0  0.5 0.3900000000003052 0  0.5 0.3800000000003328 0  0.5 0.3700000000003606 0  0.5 0.3600000000003883 0  0.5 0.3500000000004161 0  0.5 0.3400000000004438 0  0.5 0.3300000000004716 0  0.5 0.3200000000004993 0  0.5 0.3100000000005271 0  0.5 0.3000000000005548 0  0.5 0.2900000000005825 0  0.5 0.2800000000006103 0  0.5 0.2700000000006381 0  0.5 0.2600000000006658 0  0.5 0.2500000000006935 0  0.5 0.2400000000007212 0  0.5 0.230000000000749 0  0.5 0.2200000000007767 0  0.5 0.2100000000008044 0  0.5 0.2000000000008322 0  0.5 0.19000000000086 0  0.5 0.1800000000008877 0  0.5 0.1700000000009154 0  0.5 0.1600000000009431 0  0.5 0.1500000000009709 0  0.5 0.1400000000009986 0  0.5 0.1300000000010264 0  0.5 0.1200000000010541 0  0.5 0.1100000000010818 0  0.5 0.1000000000011096 0  0.5 0.09000000000113734 0  0.5 0.08000000000116503 0  0.5 0.07000000000119283 0  0.5 0.06000000000122058 0  0.5 0.05000000000124827 0  0.5 0.04000000000127607 0  0.5 0.03000000000130376 0  0.5 0.02000000000133151 0  0.5 0.01000000000135925 0  0.5 1.376121439022882e-12 0  0.5 -0.009999999998640763 0  0.5 -0.01999999999866864 0  0.5 -0.02999999999869629 0  0.5 -0.03999999999872406 0  0.5 -0.04999999999875182 0  0.5 -0.05999999999877947 0  0.5 -0.06999999999880724 0  0.5 -0.079999999998835 0  0.5 -0.08999999999886266 0  0.5 -0.09999999999889042 0  0.5 -0.1099999999989182 0  0.5 -0.1199999999989459 0  0.5 -0.1299999999989737 0  0.5 -0.1399999999990014 0  0.5 -0.1499999999990291 0  0.5 -0.1599999999990568 0  0.5 -0.1699999999990847 0  0.5 -0.1799999999991124 0  0.5 -0.1899999999991401 0  0.5 -0.1999999999991678 0  0.5 -0.2099999999991955 0  0.5 -0.2199999999992234 0  0.5 -0.2299999999992511 0  0.5 -0.2399999999992788 0  0.5 -0.2499999999993066 0  0.5 -0.2599999999993342 0  0.5 -0.269999999999362 0  0.5 -0.2799999999993897 0  0.5 -0.2899999999994175 0  0.5 -0.2999999999994452 0  0.5 -0.3099999999994729 0  0.5 -0.3199999999995007 0  0.5 -0.3299999999995284 0  0.5 -0.3399999999995562 0  0.5 -0.3499999999995839 0  0.5 -0.3599999999996116 0  0.5 -0.3699999999996393 0  0.5 -0.379999999999667 0  0.5 -0.3899999999996949 0  0.5 -0.3999999999997226 0  0.5 -0.4099999999997503 0  0.5 -0.419999999999778 0  0.5 -0.4299999999998058 0  0.5 -0.4399999999998336 0  0.5 -0.4499999999998613 0  0.5 -0.4599999999998891 0  0.5 -0.4699999999999167 0  0.5 -0.4799999999999445 0  0.5 -0.4899999999999722 0  0.4900000000000277 -0.5 0  0.4800000000000555 -0.5 0  0.4700000000000832 -0.5 0  0.4600000000001109 -0.5 0  0.4500000000001387 -0.5 0  0.4400000000001664 -0.5 0  0.4300000000001942 -0.5 0  0.4200000000002219 -0.5 0  0.4100000000002497 -0.5 0  0.4000000000002774 -0.5 0  0.3900000000003052 -0.5 0  0.3800000000003328 -0.5 0  0.3700000000003606 -0.5 0  0.3600000000003883 -0.5 0  0.3500000000004161 -0.5 0  0.3400000000004438 -0.5 0  0.3300000000004716 -0.5 0  0.3200000000004993 -0.5 0  0.3100000000005271 -0.5 0  0.3000000000005548 -0.5 0  0.2900000000005825 -0.5 0  0.2800000000006103 -0.5 0  0.2700000000006381 -0.5 0  0.2600000000006658 -0.5 0  0.2500000000006935 -0.5 0  0.2400000000007212 -0.5 0  0.230000000000749 -0.5 0  0.2200000000007767 -0.5 0  0.2100000000008044 -0.5 0  0.2000000000008322 -0.5 0  0.19000000000086 -0.5 0  0.1800000000008877 -0.5 0  0.1700000000009154 -0.5 0  0.1600000000009431 -0.5 0  0.1500000000009709 -0.5 0  0.1400000000009986 -0.5 0  0.1300000000010264 -0.5 0  0.1200000000010541 -0.5 0  0.1100000000010818 -0.5 0  0.1000000000011096 -0.5 0  0.09000000000113734 -0.5 0  0.08000000000116503 -0.5 0  0.07000000000119283 -0.5 0  0.06000000000122058 -0.5 0  0.05000000000124827 -0.5 0  0.04000000000127607 -0.5 0  0.03000000000130376 -0.5 0  0.02000000000133151 -0.5 0  0.01000000000135925 -0.5 0  1.376121439022882e-12 -0.5 0  -0.009999999998640763 -0.5 0  -0.01999999999866864 -0.5 0  -0.02999999999869629 -0.5 0  -0.03999999999872406 -0.5 0  -0.04999999999875182 -0.5 0  -0.05999999999877947 -0.5 0  -0.06999999999880724 -0.5 0  -0.079999999998835 -0.5 0  -0.08999999999886266 -0.5 0  -0.09999999999889042 -0.5 0  -0.1099999999989182 -0.5 0  -0.1199999999989459 -0.5 0  -0.1299999999989737 -0.5 0  -0.1399999999990014 -0.5 0  -0.1499999999990291 -0.5 0  -0.1599999999990568 -0.5 0  -0.1699999999990847 -0.5 0  -0.1799999999991124 -0.5 0  -0.1899999999991401 -0.5 0  -0.1999999999991678 -0.5 0  -0.2099999999991955 -0.5 0  -0.2199999999992234 -0.5 0  -0.2299999999992511 -0.5 0  -0.2399999999992788 -0.5 0  -0.2499999999993066 -0.5 0  -0.2599999999993342 -0.5 0  -0.269999999999362 -0.5 0  -0.2799999999993897 -0.5 0  -0.2899999999994175 -0.5 0  -0.2999999999994452 -0.5 0  -0.3099999999994729 -0.5 0  -0.3199999999995007 -0.5 0  -0.3299999999995284 -0.5 0  -0.3399999999995562 -0.5 0  -0.3499999999995839 -0.5 0  -0.3599999999996116 -0.5 0  -0.3699999999996393 -0.5 0  -0.379999999999667 -0.5 0  -0.3899999999996949 -0.5 0  -0.3999999999997226 -0.5 0  -0.4099999999997503 -0.5 0  -0.419999999999778 -0.5 0  -0.4299999999998058 -0.5 0  -0.4399999999998336 -0.5 0  -0.4499999999998613 -0.5 0  -0.4599999999998891 -0.5 0  -0.4699999999999167 -0.5 0  -0.4799999999999445 -0.5 0  -0.4899999999999722 -0.5 0  -0.5 -0.4900000000000277 0  -0.5 -0.4800000000000555 0  -0.5 -0.4700000000000832 0  -0.5 -0.4600000000001109 0  -0.5 -0.4500000000001387 0  -0.5 -0.4400000000001664 0  -0.5 -0.4300000000001942 0  -0.5 -0.4200000000002219 0  -0.5 -0.4100000000002497 0  -0.5 -0.4000000000002774 0  -0.5 -0.3900000000003052 0  -0.5 -0.3800000000003328 0  -0.5 -0.3700000000003606 0  -0.5 -0.3600000000003883 0  -0.5 -0.3500000000004161 0  -0.5 -0.3400000000004438 0  -0.5 -0.3300000000004716 0  -0.5 -0.3200000000004993 0  -0.5 -0.3100000000005271 0  -0.5 -0.3000000000005548 0  -0.5 -0.2900000000005825 0  -0.5 -0.2800000000006103 0  -0.5 -0.2700000000006381 0  -0.5 -0.2600000000006658 0  -0.5 -0.2500000000006935 0  -0.5 -0.2400000000007212 0  -0.5 -0.230000000000749 0  -0.5 -0.2200000000007767 0  -0.5 -0.2100000000008044 0  -0.5 -0.2000000000008322 0  -0.5 -0.19000000000086 0  -0.5 -0.1800000000008877 0  -0.5 -0.1700000000009154 0  -0.5 -0.1600000000009431 0  -0.5 -0.1500000000009709 0  -0.5 -0.1400000000009986 0  -0.5 -0.1300000000010264 0  -0.5 -0.1200000000010541 0  -0.5 -0.1100000000010818 0  -0.5 -0.1000000000011096 0  -0.5 -0.09000000000113734 0  -0.5 -0.08000000000116503 0  -0.5 -0.07000000000119283 0  -0.5 -0.06000000000122058 0  -0.5 -0.05000000000124827 0  -0.5 -0.04000000000127607 0  -0.5 -0.03000000000130376 0  -0.5 -0.02000000000133151 0  -0.5 -0.01000000000135925 0  -0.5 -1.376121439022882e-12 0  -0.5 0.009999999998640763 0  -0.5 0.01999999999866864 0  -0.5 0.02999999999869629 0  -0.5 0.03999999999872406 0  -0.5 0.04999999999875182 0  -0.5 0.05999999999877947 0  -0.5 0.06999999999880724 0  -0.5 0.079999999998835 0  -0.5 0.08999999999886266 0  -0.5 0.09999999999889042
[...]
<PointData  Vectors="f_27-0"> 
<DataArray  type="Float64"  Name="f_27-0"  NumberOfComponents="3" format="ascii">1.8639007582555590e-03 5.0142513956467051e-02 0.0000000000000000e+00  -2.5572009792476642e-03 4.9747082812447732e-02 0.0000000000000000e+00  -6.2468983143216996e-04 3.7057669872824453e-02 0.0000000000000000e+00  7.1068421295633047e-04 3.6952361985296958e-02 0.0000000000000000e+00  -1.8160657254564390e-03 6.6128243709649530e-03 0.0000000000000000e+00  1.8642962467514761e-03 6.5321126794299677e-03 0.0000000000000000e+00  -8.1069094078254191e-04 6.1784198880249514e-03 0.0000000000000000e+00  8.1123592491692451e-04 6.2126285441865114e-03 0.0000000000000000e+00  3.2005611911806986e-03 4.9358011914598585e-02 0.0000000000000000e+00  4.4898765158401192e-03 4.8487733872073856e-02 0.0000000000000000e+00  5.7246832400920924e-03 4.7537538991793145e-02 0.0000000000000000e+00  6.9013274354140083e-03 4.6512193872762599e-02 0.0000000000000000e+00  8.0132948436791949e-03 4.5419095894828759e-02 0.0000000000000000e+00  9.0583324388958872e-03 4.4262981727766354e-02 0.0000000000000000e+00  1.0031084219213197e-02 4.3053255152504008e-02 0.0000000000000000e+00  1.0930652570835685e-02 4.1794742800752682e-02 0.0000000000000000e+00  1.1754184813071103e-02 4.0495200196753407e-02 0.0000000000000000e+00  1.2498781107825454e-02 3.9163221347144617e-02 0.0000000000000000e+00  1.3165598679090340e-02 3.7805271421874835e-02 0.0000000000000000e+00  1.3753881057051607e-02 3.6427168319524215e-02 0.0000000000000000e+00  1.4263861134552103e-02 3.5036739026262850e-02 0.0000000000000000e+00  1.4697236461202703e-02 3.3638956527051012e-02 0.0000000000000000e+00  1.5053498896318887e-02 3.2243043125199766e-02 0.0000000000000000e+00  1.5336264387653210e-02 3.0852285537536276e-02 0.0000000000000000e+00  1.5547063174080174e-02 2.9472140244655148e-02 0.0000000000000000e+00  1.5687741222847221e-02 2.8109048432412864e-02 0.0000000000000000e+00  1.5761736306301864e-02 2.6767430668445700e-02 0.0000000000000000e+00  1.5771920080835247e-02 2.5449994190352692e-02 0.0000000000000000e+00  1.5720775657474814e-02 2.4161634505076877e-02 0.0000000000000000e+00  1.5612024614334927e-02 2.2904773125132200e-02 0.0000000000000000e+00  1.5448720078866097e-02 2.1682225877458928e-02 0.0000000000000000e+00  1.5233702359958013e-02 2.0498779435759069e-02 0.0000000000000000e+00  1.4970435747650775e-02 1.9354328467325925e-02 0.0000000000000000e+00  1.4662440515424712e-02 1.8251307324011940e-02 0.0000000000000000e+00  1.4312302976747088e-02 1.7191066556979228e-02 0.0000000000000000e+00  1.3923266921511539e-02 1.6176021296336239e-02 0.0000000000000000e+00  1.3498452561440952e-02 1.5204988055443864e-02 0.0000000000000000e+00  1.3040732893415110e-02 1.4279860261814110e-02 0.0000000000000000e+00  1.2552473868842846e-02 1.3401351794636076e-02 0.0000000000000000e+00  1.2036405100581593e-02 1.2569657698546439e-02 0.0000000000000000e+00  1.1495084736163260e-02 1.1785322000223350e-02 0.0000000000000000e+00  1.0930891984321085e-02 1.1047487804504810e-02 0.0000000000000000e+00  1.0345691798160117e-02 1.0356405868705678e-02 0.0000000000000000e+00  9.7416705964593342e-03 9.7115548111713808e-03 0.0000000000000000e+00  9.1209608700967195e-03 9.1136042014472972e-03 0.0000000000000000e+00  8.4850263030500882e-03 8.5615494631374554e-03 0.0000000000000000e+00  7.8357191282784899e-03 8.0548445759504785e-03 0.0000000000000000e+00  7.1745605748578835e-03 7.5942178218168423e-03 0.0000000000000000e+00  6.5030482281772869e-03 7.1781852737564031e-03 0.0000000000000000e+00  5.8225802997729035e-03 6.8058524058356258e-03 0.0000000000000000e+00  5.1341760629761450e-03 6.4788071578341221e-03 0.0000000000000000e+00  4.4392038261322053e-03 6.1952996432883484e-03 0.0000000000000000e+00  3.7387081885087185e-03 5.9553065048251431e-03 0.0000000000000000e+00  3.0334987078966787e-03 5.7582450431609691e-03 0.0000000000000000e+00  2.3251912961846808e-03 5.6047183004824669e-03 0.0000000000000000e+00  1.6140028448532113e-03 5.4934639515960030e-03 0.0000000000000000e+00  9.0152750242720580e-04 5.4242942990183106e-03 0.0000000000000000e+00  1.8807022216590628e-04 5.3980919677521213e-03 0.0000000000000000e+00  -5.2520167836803036e-04 5.4143726671369704e-03 0.0000000000000000e+00  -1.2372837121829203e-03 5.4722489482972028e-03 0.0000000000000000e+00  -1.9476548049873897e-03 5.5723058232514987e-03 0.0000000000000000e+00  -2.6550714173941186e-03 5.7151139469244642e-03 0.0000000000000000e+00  -3.3588718133218906e-03 5.9009338470202002e-03 0.0000000000000000e+00  -4.0577911008810395e-03 6.1294281512048595e-03 0.0000000000000000e+00  -4.7511210941530765e-03 6.4010767077625173e-03 0.0000000000000000e+00  -5.4376020841133748e-03 6.7156661376411410e-03 0.0000000000000000e+00  -6.1163623866010205e-03 7.0739452289215500e-03 0.0000000000000000e+00  -6.7861050095773985e-03 7.4756344385264288e-03 0.0000000000000000e+00  -7.4453185401135054e-03 7.9223627088157913e-03 0.0000000000000000e+00  -8.0932104274337516e-03 8.4131177339690239e-03 0.0000000000000000e+00  -8.7276129932017735e-03 8.9486841500938056e-03 0.0000000000000000e+00  -9.3474149846747377e-03 9.5294400822252493e-03 0.0000000000000000e+00  -9.9509571162236677e-03 1.0155285148536791e-02 0.0000000000000000e+00  -1.0536030091905624e-02 1.0826570772479657e-02 0.0000000000000000e+00  -1.1101526152981791e-02 1.1544010454164489e-02 0.0000000000000000e+00  -1.1644260178438575e-02 1.2307536938863210e-02 0.0000000000000000e+00  -1.2163441716720182e-02 1.3116762607345778e-02 0.0000000000000000e+00  -1.2655484502169398e-02 1.3971663710946663e-02 0.0000000000000000e+00  -1.3118853290796246e-02 1.4872785994344863e-02 0.0000000000000000e+00  -1.3550893931764616e-02 1.5817653972386159e-02 0.0000000000000000e+00  -1.3948684989220509e-02 1.6806525713073072e-02 0.0000000000000000e+00  -1.4309973121353370e-02 1.7839653503209197e-02 0.0000000000000000e+00  -1.4631136951127903e-02 1.8914991583721907e-02 0.0000000000000000e+00  -1.4910313494851536e-02 2.0031373263002174e-02 0.0000000000000000e+00  -1.5143251332870434e-02 2.1188111849610024e-02 0.0000000000000000e+00  -1.5327937642166419e-02 2.2380786450311788e-02 0.0000000000000000e+00  -1.5460911975957255e-02 2.3609472689097619e-02 0.0000000000000000e+00  -1.5538928988518112e-02 2.4871018870232280e-02 0.0000000000000000e+00  -1.5559321321363347e-02 2.6162259096883182e-02 0.0000000000000000e+00  -1.5518625549724791e-02 2.7479539732341886e-02 0.0000000000000000e+00  -1.5414775019742271e-02 2.8819775264294342e-02 0.0000000000000000e+00  -1.5243712472741266e-02 3.0179329244161140e-02 0.0000000000000000e+00  -1.5004393067780050e-02 3.1551571354265298e-02 0.0000000000000000e+00  -1.4693821180129574e-02 3.2933069637075339e-02 0.0000000000000000e+00  -1.4309713191493857e-02 3.4319328112590461e-02 0.0000000000000000e+00  -1.3850675138787034e-02 3.5703000151368465e-02 0.0000000000000000e+00  -1.3315676656572871e-02 3.7078331119332071e-02 0.0000000000000000e+00  -1.2703635366569530e-02 3.8438733063916389e-02 0.0000000000000000e+00  -1.2014646006286550e-02 3.9778305886224788e-02 0.0000000000000000e+00  -1.1247373806778743e-02 4.1091046675099552e-02 0.0000000000000000e+00  -1.0404222902179809e-02 4.2368329588413141e-02 0.0000000000000000e+00  -9.4859795267182752e-03 4.3603285846892603e-02 0.0000000000000000e+00  -8.4937880488908032e-03 4.4790430443181158e-02 0.0000000000000000e+00  -7.4325582083503098e-03 4.5919831531567382e-02 0.0000000000000000e+00  -6.3030765724109896e-03 4.6987402800788280e-02 0.0000000000000000e+00  -5.1107762443524229e-03 4.7985217935629869e-02 0.0000000000000000e+00  -3.8604949686847499e-03 4.8906932147244266e-02 0.0000000000000000e+00  -2.9040793551017713e-03 5.1110529360238272e-02 0.0000000000000000e+00  -3.2777518480305956e-03 5.2545328084108299e-02 0.0000000000000000e+00  -3.6782668639355497e-03 5.4059096012332622e-02 0.0000000000000000e+00  -4.1093311312319592e-03 5.5654165695600714e-02 0.0000000000000000e+00  -4.5723044496971286e-03 5.7338678188177623e-02 0.0000000000000000e+00  -5.0732779321383883e-03 5.9116421506842237e-02 0.0000000000000000e+00  -5.6098243296404636e-03 6.0994512149776782e-02 0.0000000000000000e+00  -6.1920459440294971e-03 6.2980337750649901e-02 0.0000000000000000e+00  -6.8227873696987684e-03 6.5079187852593562e-02 0.0000000000000000e+00  -7.5035319518865868e-03 6.7300575876087079e-02 0.0000000000000000e+00  -8.2430533380871713e-03 6.9650952911948921e-02 0.0000000000000000e+00  -9.0500105142215653e-03 7.2135986429964008e-02 0.0000000000000000e+00  -9.9303259931825261e-03 7.4764743241946874e-02 0.0000000000000000e+00  -1.0894889047028735e-02 7.7537414390990197e-02 0.0000000000000000e+00  -1.1949002603630398e-02 8.0461833802887142e-02 0.0000000000000000e+00  -1.3101393398321493e-02 8.3538587974387318e-02 0.0000000000000000e+00  -1.4361686805464950e-02 8.6757597594496624e-02 0.0000000000000000e+00  -1.5722284287935151e-02 9.0116725898285205e-02 0.0000000000000000e+00  -1.7167889587075279e-02 9.3588361061107003e-02 0.0000000000000000e+00  -1.8658850939504715e-02 9.7139355801104943e-02 0.0000000000000000e+00  -2.0103355261254150e-02 1.0072790918265614e-01 0.0000000000000000e+00  -2.1352013953730639e-02 1.0428257762843349e-01 0.0000000000000000e+00  -2.2142505992523445e-02 1.0772986505752415e-01 0.0000000000000000e+00  -2.2106704359325473e-02 1.1097715467706633e-01 0.0000000000000000e+00  -2.0724746945977448e-02 1.1392376168287463e-01 0.0000000000000000e+00  -1.7352523436645666e-02 1.1650622072481374e-01 0.0000000000000000e+00  -1.1384163637647006e-02 1.1866196897095839e-01 0.0000000000000000e+00  -2.3856052195443673e-03 1.2039375032806700e-01 0.0000000000000000e+00  9.5481643045641201e-03 1.2173572582064171e-01 0.0000000000000000e+00  2.3694382973411227e-02 1.2262962466978222e-01 0.0000000000000000e+00  3.8501364362812852e-02 1.2298656524120780e-01 0.0000000000000000e+00  5.1825266871515133e-02 1.2247242298798232e-01 0.0000000000000000e+00  6.0999402265011854e-02 1.2074535093557445e-01 0.0000000000000000e+00  6.2748256745034814e-02 1.1752543969229251e-01 0.0000000000000000e+00  5.3991779102357307e-02 1.1301702398312331e-01 0.0000000000000000e+00  3.3011110370480226e-02 1.0864719520702949e-01 0.0000000000000000e+00  2.8090153140873835e-03 1.0659559971095849e-01 0.0000000000000000e+00  -2.8287104835305828e-02 1.0955702840962700e-01 0.0000000000000000e+00  -4.9127436741219922e-02 1.1859227031175799e-01 0.0000000000000000e+00  -5.4629102777213952e-02 1.3198400620847756e-01 0.0000000000000000e+00  -4.9792657894340918e-02 1.4582853974223023e-01 0.0000000000000000e+00  -4.2352108170880878e-02 1.5713226586706308e-01 0.0000000000000000e+00  -3.5655773686701205e-02 1.6512231145108888e-01 0.0000000000000000e+00  -2.9849362457446373e-02 1.7046134828720791e-01 0.0000000000000000e+00  -2.4715472139328044e-02 1.7368650033663940e-01 0.0000000000000000e+00  -2.0086722710899795e-02 1.7526390590333718e-01 0.0000000000000000e+00  -1.5863273193000960e-02 1.7548196909444866e-01 0.0000000000000000e+00  -1.2070897877620163e-02 1.7459775752285903e-01 0.0000000000000000e+00  -8.6246354362029213e-03 1.7281964790861296e-01 0.0000000000000000e+00  -5.5239410156026616e-03 1.7030207987295531e-01 0.0000000000000000e+00  -2.7620099281684524e-03 1.6716975566777509e-01 0.0000000000000000e+00  -3.4204390696711870e-04 1.6356095207724380e-01 0.0000000000000000e+00  1.7594825228209997e-03 1.5958039384676787e-01 0.0000000000000000e+00  3.5735392362957513e-03 1.5531248995044825e-01 0.0000000000000000e+00  5.0941723263605012e-03 1.5083873638668646e-01 0.0000000000000000e+00  6.3556009002133365e-03 1.4622849167923421e-01 0.0000000000000000e+00  7.3694895026979622e-03 1.4154631179366386e-01 0.0000000000000000e+00  8.1538740038422739e-03 1.3684869117230747e-01 0.0000000000000000e+00  8.7426641976040831e-03 1.3216873585783023e-01 0.0000000000000000e+00  9.1523502763880358e-03 1.2755030346228444e-01 0.0000000000000000e+00  9.4130547738810744e-03 1.2301340757384692e-01 0.0000000000000000e+00  9.5392514191479458e-03 1.1858830685338426e-01 0.0000000000000000e+00  9.5546002805787095e-03 1.1428879735012926e-01 0.0000000000000000e+00  9.4749228908534988e-03 1.1012794591292763e-01 0.0000000000000000e+00  9.3173313483386824e-03 1.0611461849495549e-01 0.0000000000000000e+00  9.0972718209665054e-03 1.0225128790018041e-01 0.0000000000000000e+00  8.8276006213918526e-03 9.8546508968375648e-02 0.0000000000000000e+00  8.5213671708703528e-03 9.4990216083025991e-02 0.0000000000000000e+00  8.1847748797981238e-03 9.1592561778281512e-02 0.0000000000000000e+00  7.8277432331895890e-03 8.8340720866598818e-02 0.0000000000000000e+00  7.4551217581544094e-03 8.5236679241856711e-02 0.0000000000000000e+00  7.0698973234761681e-03 8.2275224703034777e-02 0.0000000000000000e+00  6.6786728091464357e-03 7.9452585859021652e-02 0.0000000000000000e+00  6.2876313394400057e-03 7.6759880833676353e-02 0.0000000000000000e+00  5.8985873689592705e-03 7.4191411602556906e-02 0.0000000000000000e+00  5.5119761666711144e-03 7.1746098390718827e-02 0.0000000000000000e+00  5.1338819592142921e-03 6.9412395116723813e-02 0.0000000000000000e+00  4.7593761282537861e-03 6.7189323757469221e-02 0.0000000000000000e+00  4.3950766430424911e-03 6.5068554426586614e-02 0.0000000000000000e+00  4.0409154243262477e-03 6.3046745226691514e-02 0.0000000000000000e+00  3.6965215209941245e-03 6.1118440234376570e-02 0.0000000000000000e+00  3.3629714138560135e-03 5.9277809040031777e-02 0.0000000000000000e+00  3.0411583055822500e-03 5.7522123513388153e-02 0.0000000000000000e+00  2.7316221095476045e-03 5.5844463626964345e-02 0.0000000000000000e+00  2.4328505540643936e-03 5.4243353484335878e-02 0.0000000000000000e+00  2.1466662667738215e-03 5.2712556922252275e-02 0.0000000000000000e+00  1.8734786154881559e-03 5.1250125230786613e-02 0.0000000000000000e+00  1.6117756509706179e-03 4.9851401052189180e-02 0.0000000000000000e+00  1.3622675944458434e-03 4.8514164555569179e-02 0.0000000000000000e+00  1.1241967604599284e-03 4.7234313349357432e-02 0.0000000000000000e+00  8.9858419818388859e-04 4.6009917135622101e-02 0.0000000000000000e+00  6.8515908142298410e-04 4.4837142767862569e-02 0.0000000000000000e+00  4.8289790101657036e-04 4.3714396727876068e-02 0.0000000000000000e+00  2.9168171621925850e-04 4.2638535517393501e-02 0.0000000000000000e+00  1.1263279329388929e-04 4.1607279831230005e-02 0.0000000000000000e+00  -5.5946293246579386e-05 4.0619392169648591e-02 0.0000000000000000e+00  -2.1337789839707277e-04 3.9671973921267124e-02 0.0000000000000000e+00  -3.5986172249910525e-04 3.8763687463622562e-02 0.0000000000000000e+00  -4.9691852486999182e-04 3.7892848589375493e-02 0.0000000000000000e+00  1.8208200695062242e-04 3.6582855980485725e-02 0.0000000000000000e+00  9.6419058431234067e-04 3.6063479206799497e-02 0.0000000000000000e+00  1.7199307668038738e-03 3.5501104214166170e-02 0.0000000000000000e+00  2.4462937281521917e-03 3.4898457564351920e-02 0.0000000000000000e+00  3.1417944339376764e-03 3.4257534075574546e-02 0.0000000000000000e+00  3.8038295791949428e-03 3.3581712495256912e-02 0.0000000000000000e+00  4.4313505378221077e-03 3.2872801514501060e-02 0.0000000000000000e+00  5.0220536164509617e-03 3.2134277054368957e-02 0.0000000000000000e+00  5.5748231390903413e-03 3.1369031311189982e-02 0.0000000000000000e+00  6.0890752574614144e-03 3.0579823411735037e-02 0.0000000000000000e+00  6.5632447691422978e-03 2.9769822287912057e-02 0.0000000000000000e+00  6.9966779736049282e-03 2.8942676460979110e-02 0.0000000000000000e+00  7.3889221298702127e-03 2.8101011294640960e-02 0.0000000000000000e+00  7.7392518285055714e-03 2.7248754426488275e-02 0.0000000000000000e+00  8.0483764973315122e-03 2.6387856193495353e-02 0.0000000000000000e+00  8.3156380585664418e-03 2.5522275509860425e-02 0.0000000000000000e+00  8.5414469699628664e-03 2.4655155101116408e-02 0.0000000000000000e+00  8.7264143524050063e-03 2.3788981427013783e-02 0.0000000000000000e+00  8.8710475775230155e-03 2.2926427303753591e-02 0.0000000000000000e+00  8.9757807503623686e-03 2.2070985204486214e-02 0.0000000000000000e+00  9.0418031336925702e-03 2.1224638311360716e-02 0.0000000000000000e+00  9.0698813389662944e-03 2.0390294030965282e-02 0.0000000000000000e+00  9.0610336234811153e-03 1.9570320666142810e-02 0.0000000000000000e+00  9.0169369917974789e-03 1.8766112681031205e-02 0.0000000000000000e+00  8.9384474603587619e-03 1.7980305313522509e-02 0.0000000000000000e+00  8.8269058553265070e-03 1.7214678381769578e-02 0.0000000000000000e+00  8.6838672021493906e-03 1.6471087448692735e-02 0.0000000000000000e+00  8.5108654127521461e-03 1.5750603337205748e-02 0.0000000000000000e+00  8.3091245645262046e-03 1.5055656963351477e-02 0.0000000000000000e+00  8.0800406806108994e-03 1.4386943752556922e-02 0.0000000000000000e+00  7.8254179867862945e-03 1.3745720324164956e-02 0.0000000000000000e+00  7.5465537065102116e-03 1.3132926360395307e-02 0.0000000000000000e+00  7.2451348276632160e-03 1.2549308379982313e-02 0.0000000000000000e+00  6.9223955374518899e-03 1.1996253653608914e-02 0.0000000000000000e+00  6.5799961445151987e-03 1.1474211359612917e-02 0.0000000000000000e+00  6.2193660939158426e-03 1.0984164869686140e-02 0.0000000000000000e+00  5.8417291818930444e-03 1.0525859578692879e-02 0.0000000000000000e+00  5.4487419997326751e-03 1.0100507055153066e-02 0.0000000000000000e+00  5.0414819508209892e-03 9.7082422206627595e-03 0.0000000000000000e+00  4.6216021750267230e-03 9.3490362759283043e-03 0.0000000000000000e+00  4.1901558909423755e-03 9.0237858104775578e-03 0.0000000000000000e+00  3.7483401755411300e-03 8.7330596119047799e-03 0.0000000000000000e+00  3.2976587032863490e-03 8.4758979224648749e-03 0.0000000000000000e+00  2.8390823941719964e-03 8.2531158301284817e-03 0.0000000000000000e+00  2.3738924347980203e-03 8.0646662750231760e-03 0.0000000000000000e+00  1.9033344665514592e-03 7.9107425561110341e-03 0.0000000000000000e+00  1.4283141180552166e-03 7.7909771931094175e-03 0.0000000000000000e+00  9.5035497784716266e-04 7.7061306993363755e-03 0.0000000000000000e+00  4.7011931507000385e-04 7.6561733392369264e-03 0.0000000000000000e+00  -1.0895798169571991e-05 7.6404860265236931e-03 0.0000000000000000e+00  -4.9178300613420000e-04 7.6593913587080630e-03 0.0000000000000000e+00  -9.7150612746691530e-04 7.7133073410275144e-03 0.0000000000000000e+00  -1.4487341747771766e-03 7.8019337935149261e-03 0.0000000000000000e+00  -1.9225188929577596e-03 7.9248766236671327e-03 0.0000000000000000e+00  -2.3916353235454240e-03 8.0820853956589112e-03 0.0000000000000000e+00  -2.8551582592411156e-03 8.2737548233792289e-03 0.0000000000000000e+00  -3.3116580425586110e-03 8.4995945777197376e-03 0.0000000000000000e+00  -3.7601599453278771e-03 8.7598519701418721e-03 0.0000000000000000e+00  -4.1993343952136750e-03 9.0539362515404554e-03 0.0000000000000000e+00  -4.6279111935448800e-03 9.3820809862197665e-03 0.0000000000000000e+00  -5.0449220004493882e-03 9.7432162841353392e-03 0.0000000000000000e+00  -5.4486608827426057e-03 1.0137891595224853e-02 0.0000000000000000e+00  -5.8382092933098916e-03 1.0565372927056409e-02 0.0000000000000000e+00  -6.2119907819855194e-03 1.1025310573960202e-02 0.0000000000000000e+00  -6.5686034109090309e-03 1.1517233087449306e-02 0.0000000000000000e+00  -6.9067870846059301e-03 1.2040626293769322e-02 0.0000000000000000e+00  -7.2249337532942198e-03 1.2594655839361500e-02 0.0000000000000000e+00  -7.5220240583616952e-03 1.3178317300259776e-02 0.0000000000000000e+00  -7.7959168666068453e-03 1.3791390136607204e-02 0.0000000000000000e+00  -8.0458479903739461e-03 1.4432475771687528e-02 0.0000000000000000e+00  -8.2699503861909905e-03 1.5100423517905876e-02 0.0000000000000000e+00  -8.4666950928291521e-03 1.5794825837789534e-02 0.0000000000000000e+00  -8.6347450457173770e-03 1.6514170128510055e-02 0.0000000000000000e+00  -8.7727319362258301e-03 1.7256091929160128e-02 0.0000000000000000e+00  -8.8793923058814658e-03 1.8019660483871904e-02 0.0000000000000000e+00  -8.9527486637574240e-03 1.8802925771783115e-02 0.0000000000000000e+00  -8.9925122399835515e-