<?xml version="1.0"?>
<VTKFile type="UnstructuredGrid"  version="0.1"  >
<UnstructuredGrid>
<Piece  NumberOfPoints="16275" NumberOfCells="32468">
<Points>
<DataArray  type="Float64"  NumberOfComponents="3"  format="ascii">-0.5 0.5 0  0.5 0.5 0  0.5 -0.5 0  -0.5 -0.5 0  -1 1 0  1 1 0  1 -1 0  -1 -1 0  -0.4900000000000277 0.5 0  -0.4800000000000555 0.5 0  -0.4700000000000832 0.5 0  -0.4600000000001109 0.5 0  -0.4500000000001387 0.5 0  -0.4400000000001664 0.5 0  -0.4300000000001942 0.5 0  -0.4200000000002219 0.5 0  -0.4100000000002497 0.5 0  -0.4000000000002774 0.5 0  -0.3900000000003052 0.5 0  -0.3800000000003328 0.5 0  -0.3700000000003606 0.5 0  -0.3600000000003883 0.5 0  -0.3500000000004161 0.5 0  -0.3400000000004438 0.5 0  -0.3300000000004716 0.5 0  -0.3200000000004993 0.5 0  -0.3100000000005271 0.5 0  -0.3000000000005548 0.5 0  -0.2900000000005825 0.5 0  -0.2800000000006103 0.5 0  -0.2700000000006381 0.5 0  -0.2600000000006658 0.5 0  -0.2500000000006935 0.5 0  -0.2400000000007212 0.5 0  -0.230000000000749 0.5 0  -0.2200000000007767 0.5 0  -0.2100000000008044 0.5 0  -0.2000000000008322 0.5 0  -0.19000000000086 0.5 0  -0.1800000000008877 0.5 0  -0.1700000000009154 0.5 0  -0.1600000000009431 0.5 0  -0.1500000000009709 0.5 0  -0.1400000000009986 0.5 0  -0.1300000000010264 0.5 0  -0.1200000000010541 0.5 0  -0.1100000000010818 0.5 0  -0.1000000000011096 0.5 0  -0.09000000000113734 0.5 0  -0.08000000000116503 0.5 0  -0.07000000000119283 0.5 0  -0.06000000000122058 0.5 0  -0.05000000000124827 0.5 0  -0.04000000000127607 0.5 0  -0.03000000000130376 0.5 0  -0.02000000000133151 0.5 0  -0.01000000000135925 0.5 0  -1.376121439022882e-12 0.5 0  0.009999999998640763 0.5 0  0.01999999999866864 0.5 0  0.02999999999869629 0.5 0  0.03999999999872406 0.5 0  0.04999999999875182 0.5 0  0.05999999999877947 0.5 0  0.06999999999880724 0.5 0  0.079999999998835 0.5 0  0.08999999999886266 0.5 0  0.09999999999889042 0.5 0  0.1099999999989182 0.5 0  0.1199999999989459 0.5 0  0.1299999999989737 0.5 0  0.1399999999990014 0.5 0  0.1499999999990291 0.5 0  0.1599999999990568 0.5 0  0.1699999999990847 0.5 0  0.1799999999991124 0.5 0  0.1899999999991401 0.5 0  0.1999999999991678 0.5 0  0.2099999999991955 0.5 0  0.2199999999992234 0.5 0  0.2299999999992511 0.5 0  0.2399999999992788 0.5 0  0.2499999999993066 0.5 0  0.2599999999993342 0.5 0  0.269999999999362 0.5 0  0.2799999999993897 0.5 0  0.2899999999994175 0.5 0  0.2999999999994452 0.5 0  0.3099999999994729 0.5 0  0.3199999999995007 0.5 0  0.3299999999995284 0.5 0  0.3399999999995562 0.5 0  0.3499999999995839 0.5 0  0.3599999999996116 0.5 0  0.3699999999996393 0.5 0  0.379999999999667 0.5 0  0.3899999999996949 0.5 0  0.3999999999997226 0.5 0  0.4099999999997503 0.5 0  0.419999999999778 0.5 0  0.4299999999998058 0.5 0  0.4399999999998336 0.5 0  0.4499999999998613 0.5 0  0.4599999999998891 0.5 0  0.4699999999999167 0.5 0  0.4799999999999445 0.5 0  0.4899999999999722 0.5 0  0.5 0.4900000000000277 0  0.5 0.4800000000000555 0  0.5 0.4700000000000832 0  0.5 0.4600000000001109 0  0.5 0.4500000000001387 0  0.5 0.4400000000001664 0  0.5 0.4300000000001942 0  0.5 0.4200000000002219 0  0.5 0.4100000000002497 0  0.5 0.4000000000002774 0  0.5 0.3900000000003052 0  0.5 0.3800000000003328 0  0.5 0.3700000000003606 0  0.5 0.3600000000003883 0  0.5 0.3500000000004161 0  0.5 0.3400000000004438 0  0.5 0.3300000000004716 0  0.5 0.3200000000004993 0  0.5 0.3100000000005271 0  0.5 0.3000000000005548 0  0.5 0.2900000000005825 0  0.5 0.2800000000006103 0  0.5 0.2700000000006381 0  0.5 0.2600000000006658 0  0.5 0.2500000000006935 0  0.5 0.2400000000007212 0  0.5 0.230000000000749 0  0.5 0.2200000000007767 0  0.5 0.2100000000008044 0  0.5 0.2000000000008322 0  0.5 0.19000000000086 0  0.5 0.1800000000008877 0  0.5 0.1700000000009154 0  0.5 0.1600000000009431 0  0.5 0.1500000000009709 0  0.5 0.1400000000009986 0  0.5 0.1300000000010264 0  0.5 0.1200000000010541 0  0.5 0.1100000000010818 0  0.5 0.1000000000011096 0  0.5 0.09000000000113734 0  0.5 0.08000000000116503 0  0.5 0.07000000000119283 0  0.5 0.06000000000122058 0  0.5 0.05000000000124827 0  0.5 0.04000000000127607 0  0.5 0.03000000000130376 0  0.5 0.02000000000133151 0  0.5 0.01000000000135925 0  0.5 1.376121439022882e-12 0  0.5 -0.009999999998640763 0  0.5 -0.01999999999866864 0  0.5 -0.02999999999869629 0  0.5 -0.03999999999872406 0  0.5 -0.04999999999875182 0  0.5 -0.05999999999877947 0  0.5 -0.06999999999880724 0  0.5 -0.079999999998835 0  0.5 -0.08999999999886266 0  0.5 -0.09999999999889042 0  0.5 -0.1099999999989182 0  0.5 -0.1199999999989459 0  0.5 -0.1299999999989737 0  0.5 -0.1399999999990014 0  0.5 -0.1499999999990291 0  0.5 -0.1599999999990568 0  0.5 -0.1699999999990847 0  0.5 -0.1799999999991124 0  0.5 -0.1899999999991401 0  0.5 -0.1999999999991678 0  0.5 -0.2099999999991955 0  0.5 -0.2199999999992234 0  0.5 -0.2299999999992511 0  0.5 -0.2399999999992788 0  0.5 -0.2499999999993066 0  0.5 -0.2599999999993342 0  0.5 -0.269999999999362 0  0.5 -0.2799999999993897 0  0.5 -0.2899999999994175 0  0.5 -0.2999999999994452 0  0.5 -0.3099999999994729 0  0.5 -0.3199999999995007 0  0.5 -0.3299999999995284 0  0.5 -0.3399999999995562 0  0.5 -0.3499999999995839 0  0.5 -0.3599999999996116 0  0.5 -0.3699999999996393 0  0.5 -0.379999999999667 0  0.5 -0.3899999999996949 0  0.5 -0.3999999999997226 0  0.5 -0.4099999999997503 0  0.5 -0.419999999999778 0  0.5 -0.4299999999998058 0  0.5 -0.4399999999998336 0  0.5 -0.4499999999998613 0  0.5 -0.4599999999998891 0  0.5 -0.4699999999999167 0  0.5 -0.4799999999999445 0  0.5 -0.4899999999999722 0  0.4900000000000277 -0.5 0  0.4800000000000555 -0.5 0  0.4700000000000832 -0.5 0  0.4600000000001109 -0.5 0  0.4500000000001387 -0.5 0  0.4400000000001664 -0.5 0  0.4300000000001942 -0.5 0  0.4200000000002219 -0.5 0  0.4100000000002497 -0.5 0  0.4000000000002774 -0.5 0  0.3900000000003052 -0.5 0  0.3800000000003328 -0.5 0  0.3700000000003606 -0.5 0  0.3600000000003883 -0.5 0  0.3500000000004161 -0.5 0  0.3400000000004438 -0.5 0  0.3300000000004716 -0.5 0  0.3200000000004993 -0.5 0  0.3100000000005271 -0.5 0  0.3000000000005548 -0.5 0  0.2900000000005825 -0.5 0  0.2800000000006103 -0.5 0  0.2700000000006381 -0.5 0  0.2600000000006658 -0.5 0  0.2500000000006935 -0.5 0  0.2400000000007212 -0.5 0  0.230000000000749 -0.5 0  0.2200000000007767 -0.5 0  0.2100000000008044 -0.5 0  0.2000000000008322 -0.5 0  0.19000000000086 -0.5 0  0.1800000000008877 -0.5 0  0.1700000000009154 -0.5 0  0.1600000000009431 -0.5 0  0.1500000000009709 -0.5 0  0.1400000000009986 -0.5 0  0.1300000000010264 -0.5 0  0.1200000000010541 -0.5 0  0.1100000000010818 -0.5 0  0.1000000000011096 -0.5 0  0.09000000000113734 -0.5 0  0.08000000000116503 -0.5 0  0.07000000000119283 -0.5 0  0.06000000000122058 -0.5 0  0.05000000000124827 -0.5 0  0.04000000000127607 -0.5 0  0.03000000000130376 -0.5 0  0.02000000000133151 -0.5 0  0.01000000000135925 -0.5 0  1.376121439022882e-12 -0.5 0  -0.009999999998640763 -0.5 0  -0.01999999999866864 -0.5 0  -0.02999999999869629 -0.5 0  -0.03999999999872406 -0.5 0  -0.04999999999875182 -0.5 0  -0.05999999999877947 -0.5 0  -0.06999999999880724 -0.5 0  -0.079999999998835 -0.5 0  -0.08999999999886266 -0.5 0  -0.09999999999889042 -0.5 0  -0.1099999999989182 -0.5 0  -0.1199999999989459 -0.5 0  -0.1299999999989737 -0.5 0  -0.1399999999990014 -0.5 0  -0.1499999999990291 -0.5 0  -0.1599999999990568 -0.5 0  -0.1699999999990847 -0.5 0  -0.1799999999991124 -0.5 0  -0.1899999999991401 -0.5 0  -0.1999999999991678 -0.5 0  -0.2099999999991955 -0.5 0  -0.2199999999992234 -0.5 0  -0.2299999999992511 -0.5 0  -0.2399999999992788 -0.5 0  -0.2499999999993066 -0.5 0  -0.2599999999993342 -0.5 0  -0.269999999999362 -0.5 0  -0.2799999999993897 -0.5 0  -0.2899999999994175 -0.5 0  -0.2999999999994452 -0.5 0  -0.3099999999994729 -0.5 0  -0.3199999999995007 -0.5 0  -0.3299999999995284 -0.5 0  -0.3399999999995562 -0.5 0  -0.3499999999995839 -0.5 0  -0.3599999999996116 -0.5 0  -0.3699999999996393 -0.5 0  -0.379999999999667 -0.5 0  -0.3899999999996949 -0.5 0  -0.3999999999997226 -0.5 0  -0.4099999999997503 -0.5 0  -0.419999999999778 -0.5 0  -0.4299999999998058 -0.5 0  -0.4399999999998336 -0.5 0  -0.4499999999998613 -0.5 0  -0.4599999999998891 -0.5 0  -0.4699999999999167 -0.5 0  -0.4799999999999445 -0.5 0  -0.4899999999999722 -0.5 0  -0.5 -0.4900000000000277 0  -0.5 -0.4800000000000555 0  -0.5 -0.4700000000000832 0  -0.5 -0.4600000000001109 0  -0.5 -0.4500000000001387 0  -0.5 -0.4400000000001664 0  -0.5 -0.4300000000001942 0  -0.5 -0.4200000000002219 0  -0.5 -0.4100000000002497 0  -0.5 -0.4000000000002774 0  -0.5 -0.3900000000003052 0  -0.5 -0.3800000000003328 0  -0.5 -0.3700000000003606 0  -0.5 -0.3600000000003883 0  -0.5 -0.3500000000004161 0  -0.5 -0.3400000000004438 0  -0.5 -0.3300000000004716 0  -0.5 -0.3200000000004993 0  -0.5 -0.3100000000005271 0  -0.5 -0.3000000000005548 0  -0.5 -0.2900000000005825 0  -0.5 -0.2800000000006103 0  -0.5 -0.2700000000006381 0  -0.5 -0.2600000000006658 0  -0.5 -0.2500000000006935 0  -0.5 -0.2400000000007212 0  -0.5 -0.230000000000749 0  -0.5 -0.2200000000007767 0  -0.5 -0.2100000000008044 0  -0.5 -0.2000000000008322 0  -0.5 -0.19000000000086 0  -0.5 -0.1800000000008877 0  -0.5 -0.1700000000009154 0  -0.5 -0.1600000000009431 0  -0.5 -0.1500000000009709 0  -0.5 -0.1400000000009986 0  -0.5 -0.1300000000010264 0  -0.5 -0.1200000000010541 0  -0.5 -0.1100000000010818 0  -0.5 -0.1000000000011096 0  -0.5 -0.09000000000113734 0  -0.5 -0.08000000000116503 0  -0.5 -0.07000000000119283 0  -0.5 -0.06000000000122058 0  -0.5 -0.05000000000124827 0  -0.5 -0.04000000000127607 0  -0.5 -0.03000000000130376 0  -0.5 -0.02000000000133151 0  -0.5 -0.01000000000135925 0  -0.5 -1.376121439022882e-12 0  -0.5 0.009999999998640763 0  -0.5 0.01999999999866864 0  -0.5 0.02999999999869629 0  -0.5 0.03999999999872406 0  -0.5 0.04999999999875182 0  -0.5 0.05999999999877947 0  -0.5 0.06999999999880724 0  -0.5 0.079999999998835 0  -0.5 0.08999999999886266 0  -0.5 0.09999999999889042
[...]
<PointData  Vectors="f_27-0"> 
<DataArray  type="Float64"  Name="f_27-0"  NumberOfComponents="3" format="ascii">7.7147406334616790e-04 4.4500785098705260e-02 0.0000000000000000e+00  -1.1166043470522166e-03 4.4434153619352962e-02 0.0000000000000000e+00  2.2021433775744841e-04 4.0863611275053793e-02 0.0000000000000000e+00  -3.3105995289944600e-05 4.0819595134737541e-02 0.0000000000000000e+00  -1.5700040325922304e-03 6.4722791987836684e-03 0.0000000000000000e+00  1.5760240390803033e-03 6.4228099649658674e-03 0.0000000000000000e+00  -1.2843502259188213e-03 6.5028905201042113e-03 0.0000000000000000e+00  1.3566983400455403e-03 6.3851380180865967e-03 0.0000000000000000e+00  1.8562767511231260e-03 4.3860594772604025e-02 0.0000000000000000e+00  2.9055690687395225e-03 4.3155428651726377e-02 0.0000000000000000e+00  3.9148707169790638e-03 4.2389020301869508e-02 0.0000000000000000e+00  4.8814647789939009e-03 4.1564596790391067e-02 0.0000000000000000e+00  5.8008023564318943e-03 4.0686758194193318e-02 0.0000000000000000e+00  6.6711488082502159e-03 3.9758887289437758e-02 0.0000000000000000e+00  7.4885105277045037e-03 3.8786907327129409e-02 0.0000000000000000e+00  8.2517884551644820e-03 3.7774756360829956e-02 0.0000000000000000e+00  8.9583771474875395e-03 3.6727281632103440e-02 0.0000000000000000e+00  9.6060196120811327e-03 3.5649781924038171e-02 0.0000000000000000e+00  1.0195016977188559e-02 3.4547483835449963e-02 0.0000000000000000e+00  1.0724202807492148e-02 3.3424897830058552e-02 0.0000000000000000e+00  1.1193061479957909e-02 3.2287474607756106e-02 0.0000000000000000e+00  1.1602232623644399e-02 3.1138893953351534e-02 0.0000000000000000e+00  1.1950811982359378e-02 2.9985985323836575e-02 0.0000000000000000e+00  1.2240820653662641e-02 2.8831728804377382e-02 0.0000000000000000e+00  1.2472892941631184e-02 2.7680264786739271e-02 0.0000000000000000e+00  1.2647858557986455e-02 2.6536901255829873e-02 0.0000000000000000e+00  1.2767644668238910e-02 2.5405448968195906e-02 0.0000000000000000e+00  1.2834084475015837e-02 2.4288420480160378e-02 0.0000000000000000e+00  1.2848533604960232e-02 2.3189944974457265e-02 0.0000000000000000e+00  1.2813467673396065e-02 2.2112543831682183e-02 0.0000000000000000e+00  1.2730906148681369e-02 2.1058942216227242e-02 0.0000000000000000e+00  1.2602632991230064e-02 2.0033126858668964e-02 0.0000000000000000e+00  1.2431186814253358e-02 1.9036023842509013e-02 0.0000000000000000e+00  1.2219138191481819e-02 1.8069913762456390e-02 0.0000000000000000e+00  1.1968283763882894e-02 1.7136653354409080e-02 0.0000000000000000e+00  1.1681033310711509e-02 1.6238377825038817e-02 0.0000000000000000e+00  1.1359924240921250e-02 1.5374886622606079e-02 0.0000000000000000e+00  1.1007139916029862e-02 1.4548562976988378e-02 0.0000000000000000e+00  1.0624595995976326e-02 1.3760069476255280e-02 0.0000000000000000e+00  1.0214687314901029e-02 1.3010192731046113e-02 0.0000000000000000e+00  9.7793531129261001e-03 1.2300090635125662e-02 0.0000000000000000e+00  9.3207456650975587e-03 1.1629501758053540e-02 0.0000000000000000e+00  8.8403849228984206e-03 1.0998862430994549e-02 0.0000000000000000e+00  8.3403380502234583e-03 1.0407940417082187e-02 0.0000000000000000e+00  7.8225444483147541e-03 9.8584582051913158e-03 0.0000000000000000e+00  7.2881813779339683e-03 9.3492942367278623e-03 0.0000000000000000e+00  6.7392312394202025e-03 8.8803310541866291e-03 0.0000000000000000e+00  6.1770940140512699e-03 8.4527103265192305e-03 0.0000000000000000e+00  5.6035715125642297e-03 8.0656911862268220e-03 0.0000000000000000e+00  5.0198093503693404e-03 7.7187225776811268e-03 0.0000000000000000e+00  4.4266686076983031e-03 7.4128972953448726e-03 0.0000000000000000e+00  3.8257597076927054e-03 7.1471353009545154e-03 0.0000000000000000e+00  3.2181457041967538e-03 6.9218477898833532e-03 0.0000000000000000e+00  2.6049007359412730e-03 6.7363463114477233e-03 0.0000000000000000e+00  1.9876489261137623e-03 6.5914191024238405e-03 0.0000000000000000e+00  1.3669699038687314e-03 6.4862441964122740e-03 0.0000000000000000e+00  7.4448122815297716e-04 6.4207769348905621e-03 0.0000000000000000e+00  1.2026162173714943e-04 6.3957559031927727e-03 0.0000000000000000e+00  -5.0405198180926739e-04 6.4104225608488533e-03 0.0000000000000000e+00  -1.1271873850578797e-03 6.4642978886336111e-03 0.0000000000000000e+00  -1.7485098222800367e-03 6.5580828805027304e-03 0.0000000000000000e+00  -2.3667488731420844e-03 6.6922190228706638e-03 0.0000000000000000e+00  -2.9811378340499077e-03 6.8667024145016280e-03 0.0000000000000000e+00  -3.5902984312239272e-03 7.0809971830068002e-03 0.0000000000000000e+00  -4.1932191148336528e-03 7.3354832269374838e-03 0.0000000000000000e+00  -4.7885685474377652e-03 7.6301808503899610e-03 0.0000000000000000e+00  -5.3755512919037175e-03 7.9656403179333528e-03 0.0000000000000000e+00  -5.9526591970447476e-03 8.3410118873514308e-03 0.0000000000000000e+00  -6.5182636201835346e-03 8.7576132532267096e-03 0.0000000000000000e+00  -7.0715951042326910e-03 9.2144382381189500e-03 0.0000000000000000e+00  -7.6105926170979572e-03 9.7117172372235844e-03 0.0000000000000000e+00  -8.1338691789298832e-03 1.0249664196569011e-02 0.0000000000000000e+00  -8.6400379670904214e-03 1.0828038530677608e-02 0.0000000000000000e+00  -9.1269757444219328e-03 1.1446600162184798e-02 0.0000000000000000e+00  -9.5934339109355754e-03 1.2105573771658207e-02 0.0000000000000000e+00  -1.0036731753447744e-02 1.2804534985578639e-02 0.0000000000000000e+00  -1.0455980663180530e-02 1.3542465910521466e-02 0.0000000000000000e+00  -1.0847998558643815e-02 1.4319465121403216e-02 0.0000000000000000e+00  -1.1211459035074773e-02 1.5135331450659654e-02 0.0000000000000000e+00  -1.1544370816826952e-02 1.5987247988942018e-02 0.0000000000000000e+00  -1.1843998398865775e-02 1.6874811454551612e-02 0.0000000000000000e+00  -1.2108578205767094e-02 1.7798058584323883e-02 0.0000000000000000e+00  -1.2335084327389945e-02 1.8754884921128812e-02 0.0000000000000000e+00  -1.2522570403105865e-02 1.9743422148789973e-02 0.0000000000000000e+00  -1.2667007884078199e-02 2.0762243441196399e-02 0.0000000000000000e+00  -1.2767364723175001e-02 2.1807499391866828e-02 0.0000000000000000e+00  -1.2820868500457222e-02 2.2878825054362163e-02 0.0000000000000000e+00  -1.2825432131607729e-02 2.3972805029797782e-02 0.0000000000000000e+00  -1.2779244469119117e-02 2.5086307954839709e-02 0.0000000000000000e+00  -1.2679955392389758e-02 2.6215858447352886e-02 0.0000000000000000e+00  -1.2526110292414995e-02 2.7358451207193098e-02 0.0000000000000000e+00  -1.2315492269545784e-02 2.8511080420811939e-02 0.0000000000000000e+00  -1.2047821294302388e-02 2.9667537919539549e-02 0.0000000000000000e+00  -1.1721280663702278e-02 3.0825072798511505e-02 0.0000000000000000e+00  -1.1334628653551506e-02 3.1979534443805122e-02 0.0000000000000000e+00  -1.0887772490143048e-02 3.3125511126288434e-02 0.0000000000000000e+00  -1.0380455691557327e-02 3.4258132620766601e-02 0.0000000000000000e+00  -9.8129035903912285e-03 3.5372328331453463e-02 0.0000000000000000e+00  -9.1854908376375038e-03 3.6463302907586564e-02 0.0000000000000000e+00  -8.4983352871313179e-03 3.7526818541187973e-02 0.0000000000000000e+00  -7.7537379569503680e-03 3.8556679847267530e-02 0.0000000000000000e+00  -6.9531563127263251e-03 3.9548381367887228e-02 0.0000000000000000e+00  -6.0981733203824299e-03 4.0497463794845874e-02 0.0000000000000000e+00  -5.1927007371995806e-03 4.1397427430052293e-02 0.0000000000000000e+00  -4.2377783665019852e-03 4.2245607871845052e-02 0.0000000000000000e+00  -3.2376667615292860e-03 4.3036687151021422e-02 0.0000000000000000e+00  -2.1961049382228353e-03 4.3767249851120633e-02 0.0000000000000000e+00  -1.3571083746868071e-03 4.5557627550100663e-02 0.0000000000000000e+00  -1.6143177168427391e-03 4.6734529245307257e-02 0.0000000000000000e+00  -1.8881460579532551e-03 4.7970949587889521e-02 0.0000000000000000e+00  -2.1797833257311263e-03 4.9268166389321161e-02 0.0000000000000000e+00  -2.4904485003419126e-03 5.0632404838798099e-02 0.0000000000000000e+00  -2.8234410124402861e-03 5.2065826437695438e-02 0.0000000000000000e+00  -3.1738974356203438e-03 5.3573075443332827e-02 0.0000000000000000e+00  -3.5483832232622282e-03 5.5160116403211626e-02 0.0000000000000000e+00  -3.9474477047615293e-03 5.6830833550101822e-02 0.0000000000000000e+00  -4.3697922724017348e-03 5.8592936956767296e-02 0.0000000000000000e+00  -4.8190566058749964e-03 6.0451540123082070e-02 0.0000000000000000e+00  -5.2971510490549363e-03 6.2412011931658663e-02 0.0000000000000000e+00  -5.8053340482602123e-03 6.4483880875138747e-02 0.0000000000000000e+00  -6.3477256187647758e-03 6.6671041466549147e-02 0.0000000000000000e+00  -6.9227218479047123e-03 6.8985578869366376e-02 0.0000000000000000e+00  -7.5368981934224076e-03 7.1435132655833580e-02 0.0000000000000000e+00  -8.1945371079352753e-03 7.4025361072492163e-02 0.0000000000000000e+00  -8.8924084356519009e-03 7.6770469512058404e-02 0.0000000000000000e+00  -9.6376223122309514e-03 7.9676901570818387e-02 0.0000000000000000e+00  -1.0436776475673554e-02 8.2751259745117461e-02 0.0000000000000000e+00  -1.1289089046732646e-02 8.6007607642906769e-02 0.0000000000000000e+00  -1.2200379031001874e-02 8.9448850468718769e-02 0.0000000000000000e+00  -1.3169946839004914e-02 9.3082196414663074e-02 0.0000000000000000e+00  -1.4191924818643937e-02 9.6909886197874814e-02 0.0000000000000000e+00  -1.5256836188405442e-02 1.0093726292733857e-01 0.0000000000000000e+00  -1.6356573573980321e-02 1.0514465738695754e-01 0.0000000000000000e+00  -1.7448740286892556e-02 1.0952662302740401e-01 0.0000000000000000e+00  -1.8502643435074989e-02 1.1405195197136425e-01 0.0000000000000000e+00  -1.9422531681723264e-02 1.1867224806141873e-01 0.0000000000000000e+00  -2.0112259211824857e-02 1.2333527161588113e-01 0.0000000000000000e+00  -2.0420253463277544e-02 1.2795590353785372e-01 0.0000000000000000e+00  -2.0133128013159616e-02 1.3241016228923644e-01 0.0000000000000000e+00  -1.8973868224373181e-02 1.3654984156093569e-01 0.0000000000000000e+00  -1.6624642626300822e-02 1.4017528157085399e-01 0.0000000000000000e+00  -1.2664873072638661e-02 1.4303208046148952e-01 0.0000000000000000e+00  -6.6344945329971502e-03 1.4483991616112080e-01 0.0000000000000000e+00  1.9025055594372540e-03 1.4522197360656858e-01 0.0000000000000000e+00  1.3291967093649283e-02 1.4386957251791083e-01 0.0000000000000000e+00  2.7527757273597755e-02 1.4032220905477277e-01 0.0000000000000000e+00  4.3991224869690211e-02 1.3443152930491864e-01 0.0000000000000000e+00  6.1018764369398924e-02 1.2588553578404657e-01 0.0000000000000000e+00  7.5578783432286925e-02 1.1492492080675278e-01 0.0000000000000000e+00  8.2836203422080992e-02 1.0170692014863227e-01 0.0000000000000000e+00  7.7977773203868048e-02 8.7189674517539131e-02 0.0000000000000000e+00  5.5921880200086517e-02 7.2680808841950564e-02 0.0000000000000000e+00  1.6290716334767540e-02 6.1197408301052379e-02 0.0000000000000000e+00  -3.3267949761572900e-02 5.8484449316648368e-02 0.0000000000000000e+00  -7.3967728749240541e-02 6.8443277191913329e-02 0.0000000000000000e+00  -8.8630615731296949e-02 9.0672720707636004e-02 0.0000000000000000e+00  -7.8633352949329313e-02 1.1584095707979722e-01 0.0000000000000000e+00  -6.0714935466972500e-02 1.3569113865814100e-01 0.0000000000000000e+00  -4.4386755361185880e-02 1.4918488871060079e-01 0.0000000000000000e+00  -3.1222366229932901e-02 1.5753352915075922e-01 0.0000000000000000e+00  -2.0634690451512012e-02 1.6224052757503096e-01 0.0000000000000000e+00  -1.2115269393749378e-02 1.6431235742473574e-01 0.0000000000000000e+00  -5.2166755595571121e-03 1.6440868744311204e-01 0.0000000000000000e+00  3.1497866420147663e-04 1.6300802527179101e-01 0.0000000000000000e+00  4.6946087257864789e-03 1.6046157299321923e-01 0.0000000000000000e+00  8.0694742971029847e-03 1.5707237353722073e-01 0.0000000000000000e+00  1.0610282003017932e-02 1.5305181484335670e-01 0.0000000000000000e+00  1.2439170585582360e-02 1.4859265160914906e-01 0.0000000000000000e+00  1.3680500984809437e-02 1.4384307607399091e-01 0.0000000000000000e+00  1.4439545601777903e-02 1.3893048850649839e-01 0.0000000000000000e+00  1.4811377403103225e-02 1.3394631881614213e-01 0.0000000000000000e+00  1.4881274891290021e-02 1.2897214134893911e-01 0.0000000000000000e+00  1.4720852135785520e-02 1.2406323849171849e-01 0.0000000000000000e+00  1.4384951597725966e-02 1.1926978256299754e-01 0.0000000000000000e+00  1.3929366648700359e-02 1.1460883328548231e-01 0.0000000000000000e+00  1.3388897911035208e-02 1.1012006366598984e-01 0.0000000000000000e+00  1.2796157036685950e-02 1.0580302618802344e-01 0.0000000000000000e+00  1.2169974151806602e-02 1.0167434452526768e-01 0.0000000000000000e+00  1.1526128394244502e-02 9.7736020468982582e-02 0.0000000000000000e+00  1.0877152510192998e-02 9.3991760670383853e-02 0.0000000000000000e+00  1.0236794267873748e-02 9.0429943097641213e-02 0.0000000000000000e+00  9.6123503751652361e-03 8.7044615247520454e-02 0.0000000000000000e+00  9.0022358858992124e-03 8.3840397492554980e-02 0.0000000000000000e+00  8.4160865265109023e-03 8.0796492816885584e-02 0.0000000000000000e+00  7.8443104194285962e-03 7.7915079526168884e-02 0.0000000000000000e+00  7.2968173239840780e-03 7.5181982284353147e-02 0.0000000000000000e+00  6.7719194866791479e-03 7.2592440783646767e-02 0.0000000000000000e+00  6.2678623639057162e-03 7.0137747319184249e-02 0.0000000000000000e+00  5.7856002491871571e-03 6.7808614306198153e-02 0.0000000000000000e+00  5.3252901934473587e-03 6.5600570037144285e-02 0.0000000000000000e+00  4.8865567631948157e-03 6.3502686228712260e-02 0.0000000000000000e+00  4.4651141762038138e-03 6.1512851683050089e-02 0.0000000000000000e+00  4.0641847360706205e-03 5.9620635480134632e-02 0.0000000000000000e+00  3.6837129639233001e-03 5.7822835285806444e-02 0.0000000000000000e+00  3.3216175936284960e-03 5.6111828084965766e-02 0.0000000000000000e+00  2.9769009968897741e-03 5.4484967472603452e-02 0.0000000000000000e+00  2.6479690967404312e-03 5.2935119552661489e-02 0.0000000000000000e+00  2.3367900503375176e-03 5.1459301567451321e-02 0.0000000000000000e+00  2.0430766389515262e-03 5.0051583780430370e-02 0.0000000000000000e+00  1.7648999588905489e-03 4.8709821864140121e-02 0.0000000000000000e+00  1.5019336159492907e-03 4.7429574724291670e-02 0.0000000000000000e+00  1.2544285473160587e-03 4.6207511125974619e-02 0.0000000000000000e+00  1.0200725912003700e-03 4.5040926189876505e-02 0.0000000000000000e+00  7.9959232582729365e-04 4.3925413932681533e-02 0.0000000000000000e+00  5.9325109106066122e-04 4.2858673975916965e-02 0.0000000000000000e+00  3.9992371820927151e-04 4.1838956552661399e-02 0.0000000000000000e+00  1.1592087480205889e-03 4.0296860258813058e-02 0.0000000000000000e+00  2.0676941976624347e-03 3.9675573500153917e-02 0.0000000000000000e+00  2.9430354460357306e-03 3.9002577789500843e-02 0.0000000000000000e+00  3.7817743710735693e-03 3.8281721090634616e-02 0.0000000000000000e+00  4.5818017908972964e-03 3.7515198715829041e-02 0.0000000000000000e+00  5.3403437338403774e-03 3.6707748934072623e-02 0.0000000000000000e+00  6.0553593000030803e-03 3.5861654802749367e-02 0.0000000000000000e+00  6.7250563699527959e-03 3.4981837823709068e-02 0.0000000000000000e+00  7.3470419427740458e-03 3.4071900357543074e-02 0.0000000000000000e+00  7.9215296407390903e-03 3.3134467816262850e-02 0.0000000000000000e+00  8.4464906860641578e-03 3.2174817260962746e-02 0.0000000000000000e+00  8.9215013635438271e-03 3.1197844476452928e-02 0.0000000000000000e+00  9.3456883273789048e-03 3.0206136011965239e-02 0.0000000000000000e+00  9.7188500383132131e-03 2.9204452818237032e-02 0.0000000000000000e+00  1.0042103628197066e-02 2.8195364967110337e-02 0.0000000000000000e+00  1.0315164173923913e-02 2.7184007808138344e-02 0.0000000000000000e+00  1.0538398412840726e-02 2.6173685458718888e-02 0.0000000000000000e+00  1.0713463444471319e-02 2.5167925233627628e-02 0.0000000000000000e+00  1.0840486836727356e-02 2.4169557719861078e-02 0.0000000000000000e+00  1.0921140423237564e-02 2.3182329956175418e-02 0.0000000000000000e+00  1.0956700851398998e-02 2.2208882327894558e-02 0.0000000000000000e+00  1.0948538801717646e-02 2.1252510334944821e-02 0.0000000000000000e+00  1.0898042796742488e-02 2.0315750498449758e-02 0.0000000000000000e+00  1.0807492252640697e-02 1.9399897369574922e-02 0.0000000000000000e+00  1.0678144663678587e-02 1.8508034550685143e-02 0.0000000000000000e+00  1.0511808692303677e-02 1.7641913656575078e-02 0.0000000000000000e+00  1.0310476057270168e-02 1.6803607368717242e-02 0.0000000000000000e+00  1.0075940975289119e-02 1.5993569140368435e-02 0.0000000000000000e+00  9.8099893670983516e-03 1.5214764495234401e-02 0.0000000000000000e+00  9.5144872904049990e-03 1.4467725950158552e-02 0.0000000000000000e+00  9.1914793692865048e-03 1.3753298457463576e-02 0.0000000000000000e+00  8.8426954112513258e-03 1.3072515059828430e-02 0.0000000000000000e+00  8.4699241044351777e-03 1.2426128777596924e-02 0.0000000000000000e+00  8.0746146612708410e-03 1.1815386539090297e-02 0.0000000000000000e+00  7.6586518563001339e-03 1.1239984823338604e-02 0.0000000000000000e+00  7.2239842424699861e-03 1.0701316967764215e-02 0.0000000000000000e+00  6.7715297844721896e-03 1.0199082982930667e-02 0.0000000000000000e+00  6.3032777033565808e-03 9.7336389738122090e-03 0.0000000000000000e+00  5.8204716966436818e-03 9.3051650900921237e-03 0.0000000000000000e+00  5.3249832610071032e-03 8.9137052395531664e-03 0.0000000000000000e+00  4.8180907992671071e-03 8.5602018975621686e-03 0.0000000000000000e+00  4.3008679767051533e-03 8.2451363680360150e-03 0.0000000000000000e+00  3.7746564086087292e-03 7.9666481720304019e-03 0.0000000000000000e+00  3.2405045920078411e-03 7.7259002615237705e-03 0.0000000000000000e+00  2.6997119853948213e-03 7.5228377335327589e-03 0.0000000000000000e+00  2.1537044997173294e-03 7.3572202795282125e-03 0.0000000000000000e+00  1.6033186381511301e-03 7.2288034858122947e-03 0.0000000000000000e+00  1.0501861878357292e-03 7.1383490331545516e-03 0.0000000000000000e+00  4.9504863512924487e-04 7.0861665058305559e-03 0.0000000000000000e+00  -6.1203400686946340e-05 7.0712815378736679e-03 0.0000000000000000e+00  -6.1733900299259614e-04 7.0934027080194334e-03 0.0000000000000000e+00  -1.1721698270917927e-03 7.1535166294362370e-03 0.0000000000000000e+00  -1.7242937651938232e-03 7.2516320206871838e-03 0.0000000000000000e+00  -2.2729058107207115e-03 7.3872839114789536e-03 0.0000000000000000e+00  -2.8169438544436653e-03 7.5602379665673436e-03 0.0000000000000000e+00  -3.3555701633170760e-03 7.7706152077969687e-03 0.0000000000000000e+00  -3.8869945072144722e-03 8.0182076058995886e-03 0.0000000000000000e+00  -4.4103850536132165e-03 8.3038457572780430e-03 0.0000000000000000e+00  -4.9243457510958688e-03 8.6271127232472513e-03 0.0000000000000000e+00  -5.4275468872252951e-03 8.9880788424070122e-03 0.0000000000000000e+00  -5.9188696898146587e-03 9.3855209627822025e-03 0.0000000000000000e+00  -6.3965262728685789e-03 9.8207032176849882e-03 0.0000000000000000e+00  -6.8598401608853275e-03 1.0292598144892067e-02 0.0000000000000000e+00  -7.3066262688604375e-03 1.0801138792398092e-02 0.0000000000000000e+00  -7.7355308491274689e-03 1.1346417963944800e-02 0.0000000000000000e+00  -8.1451215283248751e-03 1.1927742303193101e-02 0.0000000000000000e+00  -8.5332761852609275e-03 1.2544321562469905e-02 0.0000000000000000e+00  -8.8990805068475953e-03 1.3195456392084030e-02 0.0000000000000000e+00  -9.2398803597415185e-03 1.3880907919644980e-02 0.0000000000000000e+00  -9.5549566818368004e-03 1.4599496195090928e-02 0.0000000000000000e+00  -9.8418565210885538e-03 1.5350248982081257e-02 0.0000000000000000e+00  -1.0098696563437096e-02 1.6132905644265144e-02 0.0000000000000000e+00  -1.0323829619651038e-02 1.6945750875770701e-02 0.0000000000000000e+00  -1.0515617714709978e-02 1.7786307716501547e-02 0.0000000000000000e+00  -1.0672038083807544e-02 1.8654442567566536e-02 0.0000000000000000e+00  -1.0791189437728754e-02 1.9547876371322350e-02 0.0000000000000000e+00  -1.0871877221669575e-0