<?xml version="1.0"?>
<VTKFile type="UnstructuredGrid"  version="0.1"  >
<UnstructuredGrid>
<Piece  NumberOfPoints="16275" NumberOfCells="32468">
<Points>
<DataArray  type="Float64"  NumberOfComponents="3"  format="ascii">-0.5 0.5 0  0.5 0.5 0  0.5 -0.5 0  -0.5 -0.5 0  -1 1 0  1 1 0  1 -1 0  -1 -1 0  -0.4900000000000277 0.5 0  -0.4800000000000555 0.5 0  -0.4700000000000832 0.5 0  -0.4600000000001109 0.5 0  -0.4500000000001387 0.5 0  -0.4400000000001664 0.5 0  -0.4300000000001942 0.5 0  -0.4200000000002219 0.5 0  -0.4100000000002497 0.5 0  -0.4000000000002774 0.5 0  -0.3900000000003052 0.5 0  -0.3800000000003328 0.5 0  -0.3700000000003606 0.5 0  -0.3600000000003883 0.5 0  -0.3500000000004161 0.5 0  -0.3400000000004438 0.5 0  -0.3300000000004716 0.5 0  -0.3200000000004993 0.5 0  -0.3100000000005271 0.5 0  -0.3000000000005548 0.5 0  -0.2900000000005825 0.5 0  -0.2800000000006103 0.5 0  -0.2700000000006381 0.5 0  -0.2600000000006658 0.5 0  -0.2500000000006935 0.5 0  -0.2400000000007212 0.5 0  -0.230000000000749 0.5 0  -0.2200000000007767 0.5 0  -0.2100000000008044 0.5 0  -0.2000000000008322 0.5 0  -0.19000000000086 0.5 0  -0.1800000000008877 0.5 0  -0.1700000000009154 0.5 0  -0.1600000000009431 0.5 0  -0.1500000000009709 0.5 0  -0.1400000000009986 0.5 0  -0.1300000000010264 0.5 0  -0.1200000000010541 0.5 0  -0.1100000000010818 0.5 0  -0.1000000000011096 0.5 0  -0.09000000000113734 0.5 0  -0.08000000000116503 0.5 0  -0.07000000000119283 0.5 0  -0.06000000000122058 0.5 0  -0.05000000000124827 0.5 0  -0.04000000000127607 0.5 0  -0.03000000000130376 0.5 0  -0.02000000000133151 0.5 0  -0.01000000000135925 0.5 0  -1.376121439022882e-12 0.5 0  0.009999999998640763 0.5 0  0.01999999999866864 0.5 0  0.02999999999869629 0.5 0  0.03999999999872406 0.5 0  0.04999999999875182 0.5 0  0.05999999999877947 0.5 0  0.06999999999880724 0.5 0  0.079999999998835 0.5 0  0.08999999999886266 0.5 0  0.09999999999889042 0.5 0  0.1099999999989182 0.5 0  0.1199999999989459 0.5 0  0.1299999999989737 0.5 0  0.1399999999990014 0.5 0  0.1499999999990291 0.5 0  0.1599999999990568 0.5 0  0.1699999999990847 0.5 0  0.1799999999991124 0.5 0  0.1899999999991401 0.5 0  0.1999999999991678 0.5 0  0.2099999999991955 0.5 0  0.2199999999992234 0.5 0  0.2299999999992511 0.5 0  0.2399999999992788 0.5 0  0.2499999999993066 0.5 0  0.2599999999993342 0.5 0  0.269999999999362 0.5 0  0.2799999999993897 0.5 0  0.2899999999994175 0.5 0  0.2999999999994452 0.5 0  0.3099999999994729 0.5 0  0.3199999999995007 0.5 0  0.3299999999995284 0.5 0  0.3399999999995562 0.5 0  0.3499999999995839 0.5 0  0.3599999999996116 0.5 0  0.3699999999996393 0.5 0  0.379999999999667 0.5 0  0.3899999999996949 0.5 0  0.3999999999997226 0.5 0  0.4099999999997503 0.5 0  0.419999999999778 0.5 0  0.4299999999998058 0.5 0  0.4399999999998336 0.5 0  0.4499999999998613 0.5 0  0.4599999999998891 0.5 0  0.4699999999999167 0.5 0  0.4799999999999445 0.5 0  0.4899999999999722 0.5 0  0.5 0.4900000000000277 0  0.5 0.4800000000000555 0  0.5 0.4700000000000832 0  0.5 0.4600000000001109 0  0.5 0.4500000000001387 0  0.5 0.4400000000001664 0  0.5 0.4300000000001942 0  0.5 0.4200000000002219 0  0.5 0.4100000000002497 0  0.5 0.4000000000002774 0  0.5 0.3900000000003052 0  0.5 0.3800000000003328 0  0.5 0.3700000000003606 0  0.5 0.3600000000003883 0  0.5 0.3500000000004161 0  0.5 0.3400000000004438 0  0.5 0.3300000000004716 0  0.5 0.3200000000004993 0  0.5 0.3100000000005271 0  0.5 0.3000000000005548 0  0.5 0.2900000000005825 0  0.5 0.2800000000006103 0  0.5 0.2700000000006381 0  0.5 0.2600000000006658 0  0.5 0.2500000000006935 0  0.5 0.2400000000007212 0  0.5 0.230000000000749 0  0.5 0.2200000000007767 0  0.5 0.2100000000008044 0  0.5 0.2000000000008322 0  0.5 0.19000000000086 0  0.5 0.1800000000008877 0  0.5 0.1700000000009154 0  0.5 0.1600000000009431 0  0.5 0.1500000000009709 0  0.5 0.1400000000009986 0  0.5 0.1300000000010264 0  0.5 0.1200000000010541 0  0.5 0.1100000000010818 0  0.5 0.1000000000011096 0  0.5 0.09000000000113734 0  0.5 0.08000000000116503 0  0.5 0.07000000000119283 0  0.5 0.06000000000122058 0  0.5 0.05000000000124827 0  0.5 0.04000000000127607 0  0.5 0.03000000000130376 0  0.5 0.02000000000133151 0  0.5 0.01000000000135925 0  0.5 1.376121439022882e-12 0  0.5 -0.009999999998640763 0  0.5 -0.01999999999866864 0  0.5 -0.02999999999869629 0  0.5 -0.03999999999872406 0  0.5 -0.04999999999875182 0  0.5 -0.05999999999877947 0  0.5 -0.06999999999880724 0  0.5 -0.079999999998835 0  0.5 -0.08999999999886266 0  0.5 -0.09999999999889042 0  0.5 -0.1099999999989182 0  0.5 -0.1199999999989459 0  0.5 -0.1299999999989737 0  0.5 -0.1399999999990014 0  0.5 -0.1499999999990291 0  0.5 -0.1599999999990568 0  0.5 -0.1699999999990847 0  0.5 -0.1799999999991124 0  0.5 -0.1899999999991401 0  0.5 -0.1999999999991678 0  0.5 -0.2099999999991955 0  0.5 -0.2199999999992234 0  0.5 -0.2299999999992511 0  0.5 -0.2399999999992788 0  0.5 -0.2499999999993066 0  0.5 -0.2599999999993342 0  0.5 -0.269999999999362 0  0.5 -0.2799999999993897 0  0.5 -0.2899999999994175 0  0.5 -0.2999999999994452 0  0.5 -0.3099999999994729 0  0.5 -0.3199999999995007 0  0.5 -0.3299999999995284 0  0.5 -0.3399999999995562 0  0.5 -0.3499999999995839 0  0.5 -0.3599999999996116 0  0.5 -0.3699999999996393 0  0.5 -0.379999999999667 0  0.5 -0.3899999999996949 0  0.5 -0.3999999999997226 0  0.5 -0.4099999999997503 0  0.5 -0.419999999999778 0  0.5 -0.4299999999998058 0  0.5 -0.4399999999998336 0  0.5 -0.4499999999998613 0  0.5 -0.4599999999998891 0  0.5 -0.4699999999999167 0  0.5 -0.4799999999999445 0  0.5 -0.4899999999999722 0  0.4900000000000277 -0.5 0  0.4800000000000555 -0.5 0  0.4700000000000832 -0.5 0  0.4600000000001109 -0.5 0  0.4500000000001387 -0.5 0  0.4400000000001664 -0.5 0  0.4300000000001942 -0.5 0  0.4200000000002219 -0.5 0  0.4100000000002497 -0.5 0  0.4000000000002774 -0.5 0  0.3900000000003052 -0.5 0  0.3800000000003328 -0.5 0  0.3700000000003606 -0.5 0  0.3600000000003883 -0.5 0  0.3500000000004161 -0.5 0  0.3400000000004438 -0.5 0  0.3300000000004716 -0.5 0  0.3200000000004993 -0.5 0  0.3100000000005271 -0.5 0  0.3000000000005548 -0.5 0  0.2900000000005825 -0.5 0  0.2800000000006103 -0.5 0  0.2700000000006381 -0.5 0  0.2600000000006658 -0.5 0  0.2500000000006935 -0.5 0  0.2400000000007212 -0.5 0  0.230000000000749 -0.5 0  0.2200000000007767 -0.5 0  0.2100000000008044 -0.5 0  0.2000000000008322 -0.5 0  0.19000000000086 -0.5 0  0.1800000000008877 -0.5 0  0.1700000000009154 -0.5 0  0.1600000000009431 -0.5 0  0.1500000000009709 -0.5 0  0.1400000000009986 -0.5 0  0.1300000000010264 -0.5 0  0.1200000000010541 -0.5 0  0.1100000000010818 -0.5 0  0.1000000000011096 -0.5 0  0.09000000000113734 -0.5 0  0.08000000000116503 -0.5 0  0.07000000000119283 -0.5 0  0.06000000000122058 -0.5 0  0.05000000000124827 -0.5 0  0.04000000000127607 -0.5 0  0.03000000000130376 -0.5 0  0.02000000000133151 -0.5 0  0.01000000000135925 -0.5 0  1.376121439022882e-12 -0.5 0  -0.009999999998640763 -0.5 0  -0.01999999999866864 -0.5 0  -0.02999999999869629 -0.5 0  -0.03999999999872406 -0.5 0  -0.04999999999875182 -0.5 0  -0.05999999999877947 -0.5 0  -0.06999999999880724 -0.5 0  -0.079999999998835 -0.5 0  -0.08999999999886266 -0.5 0  -0.09999999999889042 -0.5 0  -0.1099999999989182 -0.5 0  -0.1199999999989459 -0.5 0  -0.1299999999989737 -0.5 0  -0.1399999999990014 -0.5 0  -0.1499999999990291 -0.5 0  -0.1599999999990568 -0.5 0  -0.1699999999990847 -0.5 0  -0.1799999999991124 -0.5 0  -0.1899999999991401 -0.5 0  -0.1999999999991678 -0.5 0  -0.2099999999991955 -0.5 0  -0.2199999999992234 -0.5 0  -0.2299999999992511 -0.5 0  -0.2399999999992788 -0.5 0  -0.2499999999993066 -0.5 0  -0.2599999999993342 -0.5 0  -0.269999999999362 -0.5 0  -0.2799999999993897 -0.5 0  -0.2899999999994175 -0.5 0  -0.2999999999994452 -0.5 0  -0.3099999999994729 -0.5 0  -0.3199999999995007 -0.5 0  -0.3299999999995284 -0.5 0  -0.3399999999995562 -0.5 0  -0.3499999999995839 -0.5 0  -0.3599999999996116 -0.5 0  -0.3699999999996393 -0.5 0  -0.379999999999667 -0.5 0  -0.3899999999996949 -0.5 0  -0.3999999999997226 -0.5 0  -0.4099999999997503 -0.5 0  -0.419999999999778 -0.5 0  -0.4299999999998058 -0.5 0  -0.4399999999998336 -0.5 0  -0.4499999999998613 -0.5 0  -0.4599999999998891 -0.5 0  -0.4699999999999167 -0.5 0  -0.4799999999999445 -0.5 0  -0.4899999999999722 -0.5 0  -0.5 -0.4900000000000277 0  -0.5 -0.4800000000000555 0  -0.5 -0.4700000000000832 0  -0.5 -0.4600000000001109 0  -0.5 -0.4500000000001387 0  -0.5 -0.4400000000001664 0  -0.5 -0.4300000000001942 0  -0.5 -0.4200000000002219 0  -0.5 -0.4100000000002497 0  -0.5 -0.4000000000002774 0  -0.5 -0.3900000000003052 0  -0.5 -0.3800000000003328 0  -0.5 -0.3700000000003606 0  -0.5 -0.3600000000003883 0  -0.5 -0.3500000000004161 0  -0.5 -0.3400000000004438 0  -0.5 -0.3300000000004716 0  -0.5 -0.3200000000004993 0  -0.5 -0.3100000000005271 0  -0.5 -0.3000000000005548 0  -0.5 -0.2900000000005825 0  -0.5 -0.2800000000006103 0  -0.5 -0.2700000000006381 0  -0.5 -0.2600000000006658 0  -0.5 -0.2500000000006935 0  -0.5 -0.2400000000007212 0  -0.5 -0.230000000000749 0  -0.5 -0.2200000000007767 0  -0.5 -0.2100000000008044 0  -0.5 -0.2000000000008322 0  -0.5 -0.19000000000086 0  -0.5 -0.1800000000008877 0  -0.5 -0.1700000000009154 0  -0.5 -0.1600000000009431 0  -0.5 -0.1500000000009709 0  -0.5 -0.1400000000009986 0  -0.5 -0.1300000000010264 0  -0.5 -0.1200000000010541 0  -0.5 -0.1100000000010818 0  -0.5 -0.1000000000011096 0  -0.5 -0.09000000000113734 0  -0.5 -0.08000000000116503 0  -0.5 -0.07000000000119283 0  -0.5 -0.06000000000122058 0  -0.5 -0.05000000000124827 0  -0.5 -0.04000000000127607 0  -0.5 -0.03000000000130376 0  -0.5 -0.02000000000133151 0  -0.5 -0.01000000000135925 0  -0.5 -1.376121439022882e-12 0  -0.5 0.009999999998640763 0  -0.5 0.01999999999866864 0  -0.5 0.02999999999869629 0  -0.5 0.03999999999872406 0  -0.5 0.04999999999875182 0  -0.5 0.05999999999877947 0  -0.5 0.06999999999880724 0  -0.5 0.079999999998835 0  -0.5 0.08999999999886266 0  -0.5 0.09999999999889042
[...]
<PointData  Vectors="f_27-0"> 
<DataArray  type="Float64"  Name="f_27-0"  NumberOfComponents="3" format="ascii">3.0776386259628532e-04 4.5434386879951362e-02 0.0000000000000000e+00  -7.0337727388847975e-04 4.5362114518456641e-02 0.0000000000000000e+00  -9.5236320560123321e-04 3.8357712439483375e-02 0.0000000000000000e+00  1.0801715007741726e-03 3.8323786014681935e-02 0.0000000000000000e+00  -6.0782212700343291e-03 1.2517771134225326e-02 0.0000000000000000e+00  6.0898329597872730e-03 1.2536244060092631e-02 0.0000000000000000e+00  -5.0951322747349878e-03 1.1543606799203335e-02 0.0000000000000000e+00  5.0856753419573570e-03 1.1539630565008610e-02 0.0000000000000000e+00  1.3611071002703537e-03 4.4807328135684013e-02 0.0000000000000000e+00  2.3817736897850965e-03 4.4115263488686225e-02 0.0000000000000000e+00  3.3660397603670249e-03 4.3361384417378308e-02 0.0000000000000000e+00  4.3103423059888697e-03 4.2549193465945358e-02 0.0000000000000000e+00  5.2114263235448176e-03 4.1682552173594775e-02 0.0000000000000000e+00  6.0663500106634015e-03 4.0765597683911151e-02 0.0000000000000000e+00  6.8724774665289172e-03 3.9802791614756444e-02 0.0000000000000000e+00  7.6274988639210570e-03 3.8798709116685169e-02 0.0000000000000000e+00  8.3294857494745928e-03 3.7758081277701618e-02 0.0000000000000000e+00  8.9768487738358296e-03 3.6685845304776810e-02 0.0000000000000000e+00  9.5683886856459312e-03 3.5586925120279098e-02 0.0000000000000000e+00  1.0103222694005817e-02 3.4466201412335778e-02 0.0000000000000000e+00  1.0580823748764434e-02 3.3328615145409975e-02 0.0000000000000000e+00  1.1001017895878529e-02 3.2178968711868358e-02 0.0000000000000000e+00  1.1363939932690166e-02 3.1022022945319985e-02 0.0000000000000000e+00  1.1670045546767469e-02 2.9862291660039560e-02 0.0000000000000000e+00  1.1920041199558950e-02 2.8704176199924190e-02 0.0000000000000000e+00  1.2114924758045055e-02 2.7551904213807168e-02 0.0000000000000000e+00  1.2255892397246809e-02 2.6409406782526679e-02 0.0000000000000000e+00  1.2344365612414076e-02 2.5280393164287158e-02 0.0000000000000000e+00  1.2381933768933255e-02 2.4168382855651222e-02 0.0000000000000000e+00  1.2370357341886296e-02 2.3076543923095234e-02 0.0000000000000000e+00  1.2311522332045506e-02 2.2007857588997187e-02 0.0000000000000000e+00  1.2207400180776607e-02 2.0965048178021674e-02 0.0000000000000000e+00  1.2060060931226826e-02 1.9950505891700016e-02 0.0000000000000000e+00  1.1871600877681307e-02 1.8966438761512740e-02 0.0000000000000000e+00  1.1644191270767492e-02 1.8014767367960857e-02 0.0000000000000000e+00  1.1379986335285374e-02 1.7097208969027469e-02 0.0000000000000000e+00  1.1081162956271862e-02 1.6215252596976426e-02 0.0000000000000000e+00  1.0749875452607175e-02 1.5370155961969483e-02 0.0000000000000000e+00  1.0388220429153060e-02 1.4563013514385492e-02 0.0000000000000000e+00  9.9983035486612883e-03 1.3794741498380947e-02 0.0000000000000000e+00  9.5821389041930612e-03 1.3066093593315413e-02 0.0000000000000000e+00  9.1417025990397135e-03 1.2377645142332095e-02 0.0000000000000000e+00  8.6788965304420776e-03 1.1729886328099640e-02 0.0000000000000000e+00  8.1955668439276912e-03 1.1123163021504175e-02 0.0000000000000000e+00  7.6934820435233496e-03 1.0557762440939597e-02 0.0000000000000000e+00  7.1743350174050032e-03 1.0033841189493690e-02 0.0000000000000000e+00  6.6397551561227569e-03 9.5515024710708090e-03 0.0000000000000000e+00  6.0913045467807184e-03 9.1108131737604233e-03 0.0000000000000000e+00  5.5304614592728597e-03 8.7117613819497654e-03 0.0000000000000000e+00  4.9586532919012995e-03 8.3543156976036165e-03 0.0000000000000000e+00  4.3772413226999731e-03 8.0384283663667393e-03 0.0000000000000000e+00  3.7875474517765993e-03 7.7640139259045468e-03 0.0000000000000000e+00  3.1908177073041097e-03 7.5310043378371619e-03 0.0000000000000000e+00  2.5882637694753696e-03 7.3392994946964180e-03 0.0000000000000000e+00  1.9810817232363180e-03 7.1888469709553938e-03 0.0000000000000000e+00  1.3703998108032527e-03 7.0795656500893030e-03 0.0000000000000000e+00  7.5734664627616138e-04 7.0113925634623132e-03 0.0000000000000000e+00  1.4302605440942110e-04 6.9843113976880387e-03 0.0000000000000000e+00  -4.7146656128280504e-04 6.9982934943041307e-03 0.0000000000000000e+00  -1.0850309869504988e-03 7.0533262422265318e-03 0.0000000000000000e+00  -1.6965815839410556e-03 7.1494392471045717e-03 0.0000000000000000e+00  -2.3049937256384599e-03 7.2866685503167952e-03 0.0000000000000000e+00  -2.9091544901627131e-03 7.4650642167562783e-03 0.0000000000000000e+00  -3.5078908188884961e-03 7.6846733259842261e-03 0.0000000000000000e+00  -4.1000177900851484e-03 7.9455778087001439e-03 0.0000000000000000e+00  -4.6843043051590250e-03 8.2478449498209899e-03 0.0000000000000000e+00  -5.2594786098625638e-03 8.5915422707147898e-03 0.0000000000000000e+00  -5.8242120539630368e-03 8.9767132253986606e-03 0.0000000000000000e+00  -6.3771128293529256e-03 9.4034124618200404e-03 0.0000000000000000e+00  -6.9167522097067346e-03 9.8716223476130512e-03 0.0000000000000000e+00  -7.4415951080683915e-03 1.0381315774555267e-02 0.0000000000000000e+00  -7.9500807945102683e-03 1.0932409726368063e-02 0.0000000000000000e+00  -8.4405545005329773e-03 1.1524754389554566e-02 0.0000000000000000e+00  -8.9112988401689359e-03 1.2158122959192750e-02 0.0000000000000000e+00  -9.3605368325565159e-03 1.2832192248924758e-02 0.0000000000000000e+00  -9.7863807273474816e-03 1.3546545121612439e-02 0.0000000000000000e+00  -1.0186945353431004e-02 1.4300649371624334e-02 0.0000000000000000e+00  -1.0560210153844739e-02 1.5093816485576707e-02 0.0000000000000000e+00  -1.0904167085540558e-02 1.5925236886944347e-02 0.0000000000000000e+00  -1.1216719528735063e-02 1.6793905954151082e-02 0.0000000000000000e+00  -1.1495732387917216e-02 1.7698627138664429e-02 0.0000000000000000e+00  -1.1739085359465726e-02 1.8638066361800178e-02 0.0000000000000000e+00  -1.1944596871874283e-02 1.9610626518388633e-02 0.0000000000000000e+00  -1.2110132304200490e-02 2.0614490186598323e-02 0.0000000000000000e+00  -1.2233550358082358e-02 2.1647623791591308e-02 0.0000000000000000e+00  -1.2312765214800190e-02 2.2707692356867506e-02 0.0000000000000000e+00  -1.2345745892130685e-02 2.3792213869069271e-02 0.0000000000000000e+00  -1.2330547204435981e-02 2.4898337081708920e-02 0.0000000000000000e+00  -1.2265355444318983e-02 2.6023010342874017e-02 0.0000000000000000e+00  -1.2148436807105919e-02 2.7162905686228572e-02 0.0000000000000000e+00  -1.1978290405800925e-02 2.8314415837646937e-02 0.0000000000000000e+00  -1.1753549455661743e-02 2.9473760159023039e-02 0.0000000000000000e+00  -1.1473074314672236e-02 3.0636785120505397e-02 0.0000000000000000e+00  -1.1135961191355402e-02 3.1799293241777583e-02 0.0000000000000000e+00  -1.0741590067811970e-02 3.2956758278756930e-02 0.0000000000000000e+00  -1.0289597844277135e-02 3.4104567694438093e-02 0.0000000000000000e+00  -9.7799586965557454e-03 3.5237864593097329e-02 0.0000000000000000e+00  -9.2129512106813669e-03 3.6351793186226673e-02 0.0000000000000000e+00  -8.5892163649522856e-03 3.7441389316118415e-02 0.0000000000000000e+00  -7.9097118174057506e-03 3.8501718866768016e-02 0.0000000000000000e+00  -7.1758272606559656e-03 3.9527785312818239e-02 0.0000000000000000e+00  -6.3892419801121368e-03 4.0514703216729904e-02 0.0000000000000000e+00  -5.5520539631706009e-03 4.1457727721863333e-02 0.0000000000000000e+00  -4.6666751487580089e-03 4.2352210211711983e-02 0.0000000000000000e+00  -3.7358636508087236e-03 4.3193864065064390e-02 0.0000000000000000e+00  -2.7627286314272177e-03 4.3978530464306574e-02 0.0000000000000000e+00  -1.7506969159268777e-03 4.4702419726693123e-02 0.0000000000000000e+00  -8.9380374984822711e-04 4.6448123667722156e-02 0.0000000000000000e+00  -1.0922156872175835e-03 4.7579949684236053e-02 0.0000000000000000e+00  -1.2978618670213171e-03 4.8759200978101144e-02 0.0000000000000000e+00  -1.5098166936326840e-03 4.9987448347619992e-02 0.0000000000000000e+00  -1.7269077245236992e-03 5.1266261604215213e-02 0.0000000000000000e+00  -1.9476461448942500e-03 5.2597042561792151e-02 0.0000000000000000e+00  -2.1703188480356071e-03 5.3981055906185842e-02 0.0000000000000000e+00  -2.3927455018071630e-03 5.5419668116753057e-02 0.0000000000000000e+00  -2.6125172628375121e-03 5.6913669551282228e-02 0.0000000000000000e+00  -2.8266728115249359e-03 5.8463785866601836e-02 0.0000000000000000e+00  -3.0319141003074309e-03 6.0070540060136068e-02 0.0000000000000000e+00  -3.2245882456281203e-03 6.1733926708206183e-02 0.0000000000000000e+00  -3.4005820062131230e-03 6.3453694380523465e-02 0.0000000000000000e+00  -3.5554584012796389e-03 6.5228922293361843e-02 0.0000000000000000e+00  -3.6845206413387123e-03 6.7058329034762734e-02 0.0000000000000000e+00  -3.7828722118746329e-03 6.8939965214326396e-02 0.0000000000000000e+00  -3.8456042762164099e-03 7.0871231313644381e-02 0.0000000000000000e+00  -3.8680084515528468e-03 7.2848862374176218e-02 0.0000000000000000e+00  -3.8457063402535813e-03 7.4868668406129088e-02 0.0000000000000000e+00  -3.7749467309153776e-03 7.6925738874887115e-02 0.0000000000000000e+00  -3.6530061049936968e-03 7.9014545112375587e-02 0.0000000000000000e+00  -3.4783485993995660e-03 8.1128384136379364e-02 0.0000000000000000e+00  -3.2510634425505168e-03 8.3259947825239766e-02 0.0000000000000000e+00  -2.9730973917376411e-03 8.5400912534100010e-02 0.0000000000000000e+00  -2.6485313553699747e-03 8.7542544777463635e-02 0.0000000000000000e+00  -2.2837564468334002e-03 8.9675115053652263e-02 0.0000000000000000e+00  -1.8875404836488101e-03 9.1788439980742098e-02 0.0000000000000000e+00  -1.4710374985506217e-03 9.3871723604896790e-02 0.0000000000000000e+00  -1.0473209690689701e-03 9.5914252940566158e-02 0.0000000000000000e+00  -6.3137879147579412e-04 9.7904622205112563e-02 0.0000000000000000e+00  -2.3909713818965299e-04 9.9831706837940265e-02 0.0000000000000000e+00  1.1318899200901968e-04 1.0168447598871544e-01 0.0000000000000000e+00  4.0976371635600289e-04 1.0345225256582567e-01 0.0000000000000000e+00  6.3629997547321555e-04 1.0512475161852150e-01 0.0000000000000000e+00  7.8106964097533651e-04 1.0669251968702510e-01 0.0000000000000000e+00  8.3555200035695420e-04 1.0814654709368432e-01 0.0000000000000000e+00  7.9562379915485478e-04 1.0947885628509722e-01 0.0000000000000000e+00  6.6151430292510013e-04 1.1068235877084737e-01 0.0000000000000000e+00  4.3830410971633469e-04 1.1175087570612410e-01 0.0000000000000000e+00  1.3597527993741601e-04 1.1267900672390890e-01 0.0000000000000000e+00  -2.3158807362668745e-04 1.1346255027397864e-01 0.0000000000000000e+00  -6.4690793587472999e-04 1.1409803699757368e-01 0.0000000000000000e+00  -1.0899171479593272e-03 1.1458268928002119e-01 0.0000000000000000e+00  -1.5395830321437512e-03 1.1491472677052221e-01 0.0000000000000000e+00  -1.9747617671750459e-03 1.1509309609543791e-01 0.0000000000000000e+00  -2.3755117468066511e-03 1.1511743181372988e-01 0.0000000000000000e+00  -2.7240259389152291e-03 1.1498792265625730e-01 0.0000000000000000e+00  -3.0057632160110505e-03 1.1470579391352873e-01 0.0000000000000000e+00  -3.2098102570959543e-03 1.1427281327798480e-01 0.0000000000000000e+00  -3.3289853240748056e-03 1.1369155425305727e-01 0.0000000000000000e+00  -3.3603166339992762e-03 1.1296532609178429e-01 0.0000000000000000e+00  -3.3047274441204508e-03 1.1209841089560997e-01 0.0000000000000000e+00  -3.1663692638516515e-03 1.1109587755989185e-01 0.0000000000000000e+00  -2.9521750350615153e-03 1.0996353033048305e-01 0.0000000000000000e+00  -2.6713784744461272e-03 1.0870797745159633e-01 0.0000000000000000e+00  -2.3349858006772280e-03 1.0733668045145549e-01 0.0000000000000000e+00  -1.9549360127269124e-03 1.0585782734852241e-01 0.0000000000000000e+00  -1.5435810728058987e-03 1.0428002820327312e-01 0.0000000000000000e+00  -1.1130259474109612e-03 1.0261259823324885e-01 0.0000000000000000e+00  -6.7488171508288289e-04 1.0086504305512538e-01 0.0000000000000000e+00  -2.3966291477308868e-04 9.9047138339371218e-02 0.0000000000000000e+00  1.8292800271668046e-04 9.7168800548263254e-02 0.0000000000000000e+00  5.8478331394515174e-04 9.5239988598826680e-02 0.0000000000000000e+00  9.5915853569096836e-04 9.3270364649597787e-02 0.0000000000000000e+00  1.3005810253833524e-03 9.1269625888420344e-02 0.0000000000000000e+00  1.6052027291372129e-03 8.9246804141327796e-02 0.0000000000000000e+00  1.8703964147680000e-03 8.7210606035423868e-02 0.0000000000000000e+00  2.0947109254246146e-03 8.5169350884487585e-02 0.0000000000000000e+00  2.2776738447725011e-03 8.3130634803718698e-02 0.0000000000000000e+00  2.4198153386772703e-03 8.1101611226444617e-02 0.0000000000000000e+00  2.5224302612751426e-03 7.9088536461229542e-02 0.0000000000000000e+00  2.5872618077025346e-03 7.7097447945546460e-02 0.0000000000000000e+00  2.6167206020378570e-03 7.5133250491209350e-02 0.0000000000000000e+00  2.6136341214849619e-03 7.3200628171666990e-02 0.0000000000000000e+00  2.5808485152689861e-03 7.1303364510755626e-02 0.0000000000000000e+00  2.5213299354116163e-03 6.9444892472720551e-02 0.0000000000000000e+00  2.4383880090062980e-03 6.7627801409141985e-02 0.0000000000000000e+00  2.3347876139462494e-03 6.5854515065717420e-02 0.0000000000000000e+00  2.2136976829204139e-03 6.4126704127817860e-02 0.0000000000000000e+00  2.0779570447315137e-03 6.2445619034196036e-02 0.0000000000000000e+00  1.9302017697155295e-03 6.0812271439548364e-02 0.0000000000000000e+00  1.7729313995322789e-03 5.9227198583804756e-02 0.0000000000000000e+00  1.6084602144213562e-03 5.7690609991015558e-02 0.0000000000000000e+00  1.4389057883630982e-03 5.6202531586447051e-02 0.0000000000000000e+00  1.2660762804494177e-03 5.4762635779507643e-02 0.0000000000000000e+00  1.0917325444160608e-03 5.3370512303844521e-02 0.0000000000000000e+00  9.1738718624477826e-04 5.2025428501540738e-02 0.0000000000000000e+00  7.4428326165245121e-04 5.0726666194445269e-02 0.0000000000000000e+00  5.7357660393441518e-04 4.9473237472758863e-02 0.0000000000000000e+00  4.0623649217590456e-04 4.8264174067291679e-02 0.0000000000000000e+00  2.4313669037515607e-04 4.7098382618455781e-02 0.0000000000000000e+00  8.4970338273146319e-05 4.5974692466223065e-02 0.0000000000000000e+00  -6.7690823310673337e-05 4.4891970476706039e-02 0.0000000000000000e+00  -2.1439379805214282e-04 4.3848988819709743e-02 0.0000000000000000e+00  -3.5466725901932576e-04 4.2844506642236553e-02 0.0000000000000000e+00  -4.8829987707234019e-04 4.1877346442462701e-02 0.0000000000000000e+00  -6.1503142944802254e-04 4.0946276787187784e-02 0.0000000000000000e+00  -7.3466316528502957e-04 4.0050085322875469e-02 0.0000000000000000e+00  -8.4713717525129750e-04 3.9187606197341601e-02 0.0000000000000000e+00  -1.4915756560201959e-04 3.7890494417357909e-02 0.0000000000000000e+00  6.3081716558004391e-04 3.7377734001109664e-02 0.0000000000000000e+00  1.3853136077012532e-03 3.6821332478613904e-02 0.0000000000000000e+00  2.1120679669569360e-03 3.6223407144844545e-02 0.0000000000000000e+00  2.8090491951451406e-03 3.5586256458412159e-02 0.0000000000000000e+00  3.4743005565877937e-03 3.4912405607020851e-02 0.0000000000000000e+00  4.1060789554933762e-03 3.4204480725616611e-02 0.0000000000000000e+00  4.7027588737098410e-03 3.3465333530927226e-02 0.0000000000000000e+00  5.2629250623882637e-03 3.2697850557921189e-02 0.0000000000000000e+00  5.7853694902715146e-03 3.1905065461205744e-02 0.0000000000000000e+00  6.2690381723066327e-03 3.1090098531764511e-02 0.0000000000000000e+00  6.7130793423711543e-03 3.0256087897099927e-02 0.0000000000000000e+00  7.1168480289814278e-03 2.9406222278479801e-02 0.0000000000000000e+00  7.4798721283199010e-03 2.8543702237006412e-02 0.0000000000000000e+00  7.8019211343806367e-03 2.7671677858742583e-02 0.0000000000000000e+00  8.0828975784710752e-03 2.6793301571748831e-02 0.0000000000000000e+00  8.3229089698857520e-03 2.5911667736215793e-02 0.0000000000000000e+00  8.5222465892918885e-03 2.5029790593998714e-02 0.0000000000000000e+00  8.6813342832386051e-03 2.4150568307679785e-02 0.0000000000000000e+00  8.8007619216139508e-03 2.3276844508670371e-02 0.0000000000000000e+00  8.8812661245802199e-03 2.2411342280942992e-02 0.0000000000000000e+00  8.9237040230203055e-03 2.1556626238636176e-02 0.0000000000000000e+00  8.9290571164709256e-03 2.0715171902385893e-02 0.0000000000000000e+00  8.8984055608565624e-03 1.9889272689295721e-02 0.0000000000000000e+00  8.8329236622429527e-03 1.9081114152905827e-02 0.0000000000000000e+00  8.7338399773012210e-03 1.8292731383529982e-02 0.0000000000000000e+00  8.6024902729663014e-03 1.7525999758489303e-02 0.0000000000000000e+00  8.4402277319512962e-03 1.6782637534666585e-02 0.0000000000000000e+00  8.2484726290161844e-03 1.6064293260464359e-02 0.0000000000000000e+00  8.0286614547355663e-03 1.5372381766361768e-02 0.0000000000000000e+00  7.7822518806918645e-03 1.4708224367323861e-02 0.0000000000000000e+00  7.5107379499741913e-03 1.4073027210827980e-02 0.0000000000000000e+00  7.2155878768089118e-03 1.3467853613659739e-02 0.0000000000000000e+00  6.8982843988803222e-03 1.2893651525361297e-02 0.0000000000000000e+00  6.5603052062018982e-03 1.2351277002802110e-02 0.0000000000000000e+00  6.2031114361074799e-03 1.1841465161523205e-02 0.0000000000000000e+00  5.8281388475668362e-03 1.1364867408912101e-02 0.0000000000000000e+00  5.4368152277529270e-03 1.0922046233759935e-02 0.0000000000000000e+00  5.0305397474144798e-03 1.0513492216557731e-02 0.0000000000000000e+00  4.6106893186454003e-03 1.0139605585224792e-02 0.0000000000000000e+00  4.1786089770697024e-03 9.8007582609401338e-03 0.0000000000000000e+00  3.7356179843429740e-03 9.4972590236696228e-03 0.0000000000000000e+00  3.2830224371675301e-03 9.2293097953362810e-03 0.0000000000000000e+00  2.8221088942965164e-03 8.9971379428669136e-03 0.0000000000000000e+00  2.3541182093016174e-03 8.8009111307011893e-03 0.0000000000000000e+00  1.8802938963430854e-03 8.6407475303610665e-03 0.0000000000000000e+00  1.4018509003097790e-03 8.5167464472549123e-03 0.0000000000000000e+00  9.2000550790507292e-04 8.4290023142068668e-03 0.0000000000000000e+00  4.3593196656873062e-04 8.3775499304981869e-03 0.0000000000000000e+00  -4.9161470118300069e-05 8.3624083571580445e-03 0.0000000000000000e+00  -5.3409703917931504e-04 8.3835886174682267e-03 0.0000000000000000e+00  -1.0176885060321401e-03 8.4410869822036036e-03 0.0000000000000000e+00  -1.4987498354465637e-03 8.5348634826495368e-03 0.0000000000000000e+00  -1.9760796052567388e-03 8.6648456412645736e-03 0.0000000000000000e+00  -2.4484786010593438e-03 8.8309444820252377e-03 0.0000000000000000e+00  -2.9147194499375495e-03 9.0330491816066963e-03 0.0000000000000000e+00  -3.3735609597858231e-03 9.2710259492622075e-03 0.0000000000000000e+00  -3.8237489911123793e-03 9.5447043965492442e-03 0.0000000000000000e+00  -4.2640028287392086e-03 9.8538598616223407e-03 0.0000000000000000e+00  -4.6930222706932740e-03 1.0198233461091038e-02 0.0000000000000000e+00  -5.1094803422995494e-03 1.0577495737401060e-02 0.0000000000000000e+00  -5.5120240279369894e-03 1.0991290100712888e-02 0.0000000000000000e+00  -5.8992784010718927e-03 1.1439179521302193e-02 0.0000000000000000e+00  -6.2698433235986936e-03 1.1920650518278161e-02 0.0000000000000000e+00  -6.6222948829945212e-03 1.2435133761582479e-02 0.0000000000000000e+00  -6.9552063754779563e-03 1.2981949461972070e-02 0.0000000000000000e+00  -7.2671099228241148e-03 1.3560301614746435e-02 0.0000000000000000e+00  -7.5565462016831180e-03 1.4169334496055778e-02 0.0000000000000000e+00  -7.8220364083601748e-03 1.4808082166641163e-02 0.0000000000000000e+00  -8.0621171443921863e-03 1.5475431554753527e-02 0.0000000000000000e+00  -8.2753206411450529e-03 1.6170153608509357e-02 0.0000000000000000e+00  -8.4602019086001470e-03 1.6890949588148987e-02 0.0000000000000000e+00  -8.6153335416441212e-03 1.7636280341857737e-02 0.0000000000000000e+00  -8.7393372817474793e-03 1.8404536170921883e-02 0.0000000000000000e+00  -8.8308711896742387e-03 1.9193958517366657e-02 0.0000000000000000e+00  -8.8886468174073537e-03 2.0002631456504230e-02 0.0000000000000000e+00  -8.91146