<?xml version="1.0"?>
<VTKFile type="UnstructuredGrid"  version="0.1"  >
<UnstructuredGrid>
<Piece  NumberOfPoints="16275" NumberOfCells="32468">
<Points>
<DataArray  type="Float64"  NumberOfComponents="3"  format="ascii">-0.5 0.5 0  0.5 0.5 0  0.5 -0.5 0  -0.5 -0.5 0  -1 1 0  1 1 0  1 -1 0  -1 -1 0  -0.4900000000000277 0.5 0  -0.4800000000000555 0.5 0  -0.4700000000000832 0.5 0  -0.4600000000001109 0.5 0  -0.4500000000001387 0.5 0  -0.4400000000001664 0.5 0  -0.4300000000001942 0.5 0  -0.4200000000002219 0.5 0  -0.4100000000002497 0.5 0  -0.4000000000002774 0.5 0  -0.3900000000003052 0.5 0  -0.3800000000003328 0.5 0  -0.3700000000003606 0.5 0  -0.3600000000003883 0.5 0  -0.3500000000004161 0.5 0  -0.3400000000004438 0.5 0  -0.3300000000004716 0.5 0  -0.3200000000004993 0.5 0  -0.3100000000005271 0.5 0  -0.3000000000005548 0.5 0  -0.2900000000005825 0.5 0  -0.2800000000006103 0.5 0  -0.2700000000006381 0.5 0  -0.2600000000006658 0.5 0  -0.2500000000006935 0.5 0  -0.2400000000007212 0.5 0  -0.230000000000749 0.5 0  -0.2200000000007767 0.5 0  -0.2100000000008044 0.5 0  -0.2000000000008322 0.5 0  -0.19000000000086 0.5 0  -0.1800000000008877 0.5 0  -0.1700000000009154 0.5 0  -0.1600000000009431 0.5 0  -0.1500000000009709 0.5 0  -0.1400000000009986 0.5 0  -0.1300000000010264 0.5 0  -0.1200000000010541 0.5 0  -0.1100000000010818 0.5 0  -0.1000000000011096 0.5 0  -0.09000000000113734 0.5 0  -0.08000000000116503 0.5 0  -0.07000000000119283 0.5 0  -0.06000000000122058 0.5 0  -0.05000000000124827 0.5 0  -0.04000000000127607 0.5 0  -0.03000000000130376 0.5 0  -0.02000000000133151 0.5 0  -0.01000000000135925 0.5 0  -1.376121439022882e-12 0.5 0  0.009999999998640763 0.5 0  0.01999999999866864 0.5 0  0.02999999999869629 0.5 0  0.03999999999872406 0.5 0  0.04999999999875182 0.5 0  0.05999999999877947 0.5 0  0.06999999999880724 0.5 0  0.079999999998835 0.5 0  0.08999999999886266 0.5 0  0.09999999999889042 0.5 0  0.1099999999989182 0.5 0  0.1199999999989459 0.5 0  0.1299999999989737 0.5 0  0.1399999999990014 0.5 0  0.1499999999990291 0.5 0  0.1599999999990568 0.5 0  0.1699999999990847 0.5 0  0.1799999999991124 0.5 0  0.1899999999991401 0.5 0  0.1999999999991678 0.5 0  0.2099999999991955 0.5 0  0.2199999999992234 0.5 0  0.2299999999992511 0.5 0  0.2399999999992788 0.5 0  0.2499999999993066 0.5 0  0.2599999999993342 0.5 0  0.269999999999362 0.5 0  0.2799999999993897 0.5 0  0.2899999999994175 0.5 0  0.2999999999994452 0.5 0  0.3099999999994729 0.5 0  0.3199999999995007 0.5 0  0.3299999999995284 0.5 0  0.3399999999995562 0.5 0  0.3499999999995839 0.5 0  0.3599999999996116 0.5 0  0.3699999999996393 0.5 0  0.379999999999667 0.5 0  0.3899999999996949 0.5 0  0.3999999999997226 0.5 0  0.4099999999997503 0.5 0  0.419999999999778 0.5 0  0.4299999999998058 0.5 0  0.4399999999998336 0.5 0  0.4499999999998613 0.5 0  0.4599999999998891 0.5 0  0.4699999999999167 0.5 0  0.4799999999999445 0.5 0  0.4899999999999722 0.5 0  0.5 0.4900000000000277 0  0.5 0.4800000000000555 0  0.5 0.4700000000000832 0  0.5 0.4600000000001109 0  0.5 0.4500000000001387 0  0.5 0.4400000000001664 0  0.5 0.4300000000001942 0  0.5 0.4200000000002219 0  0.5 0.4100000000002497 0  0.5 0.4000000000002774 0  0.5 0.3900000000003052 0  0.5 0.3800000000003328 0  0.5 0.3700000000003606 0  0.5 0.3600000000003883 0  0.5 0.3500000000004161 0  0.5 0.3400000000004438 0  0.5 0.3300000000004716 0  0.5 0.3200000000004993 0  0.5 0.3100000000005271 0  0.5 0.3000000000005548 0  0.5 0.2900000000005825 0  0.5 0.2800000000006103 0  0.5 0.2700000000006381 0  0.5 0.2600000000006658 0  0.5 0.2500000000006935 0  0.5 0.2400000000007212 0  0.5 0.230000000000749 0  0.5 0.2200000000007767 0  0.5 0.2100000000008044 0  0.5 0.2000000000008322 0  0.5 0.19000000000086 0  0.5 0.1800000000008877 0  0.5 0.1700000000009154 0  0.5 0.1600000000009431 0  0.5 0.1500000000009709 0  0.5 0.1400000000009986 0  0.5 0.1300000000010264 0  0.5 0.1200000000010541 0  0.5 0.1100000000010818 0  0.5 0.1000000000011096 0  0.5 0.09000000000113734 0  0.5 0.08000000000116503 0  0.5 0.07000000000119283 0  0.5 0.06000000000122058 0  0.5 0.05000000000124827 0  0.5 0.04000000000127607 0  0.5 0.03000000000130376 0  0.5 0.02000000000133151 0  0.5 0.01000000000135925 0  0.5 1.376121439022882e-12 0  0.5 -0.009999999998640763 0  0.5 -0.01999999999866864 0  0.5 -0.02999999999869629 0  0.5 -0.03999999999872406 0  0.5 -0.04999999999875182 0  0.5 -0.05999999999877947 0  0.5 -0.06999999999880724 0  0.5 -0.079999999998835 0  0.5 -0.08999999999886266 0  0.5 -0.09999999999889042 0  0.5 -0.1099999999989182 0  0.5 -0.1199999999989459 0  0.5 -0.1299999999989737 0  0.5 -0.1399999999990014 0  0.5 -0.1499999999990291 0  0.5 -0.1599999999990568 0  0.5 -0.1699999999990847 0  0.5 -0.1799999999991124 0  0.5 -0.1899999999991401 0  0.5 -0.1999999999991678 0  0.5 -0.2099999999991955 0  0.5 -0.2199999999992234 0  0.5 -0.2299999999992511 0  0.5 -0.2399999999992788 0  0.5 -0.2499999999993066 0  0.5 -0.2599999999993342 0  0.5 -0.269999999999362 0  0.5 -0.2799999999993897 0  0.5 -0.2899999999994175 0  0.5 -0.2999999999994452 0  0.5 -0.3099999999994729 0  0.5 -0.3199999999995007 0  0.5 -0.3299999999995284 0  0.5 -0.3399999999995562 0  0.5 -0.3499999999995839 0  0.5 -0.3599999999996116 0  0.5 -0.3699999999996393 0  0.5 -0.379999999999667 0  0.5 -0.3899999999996949 0  0.5 -0.3999999999997226 0  0.5 -0.4099999999997503 0  0.5 -0.419999999999778 0  0.5 -0.4299999999998058 0  0.5 -0.4399999999998336 0  0.5 -0.4499999999998613 0  0.5 -0.4599999999998891 0  0.5 -0.4699999999999167 0  0.5 -0.4799999999999445 0  0.5 -0.4899999999999722 0  0.4900000000000277 -0.5 0  0.4800000000000555 -0.5 0  0.4700000000000832 -0.5 0  0.4600000000001109 -0.5 0  0.4500000000001387 -0.5 0  0.4400000000001664 -0.5 0  0.4300000000001942 -0.5 0  0.4200000000002219 -0.5 0  0.4100000000002497 -0.5 0  0.4000000000002774 -0.5 0  0.3900000000003052 -0.5 0  0.3800000000003328 -0.5 0  0.3700000000003606 -0.5 0  0.3600000000003883 -0.5 0  0.3500000000004161 -0.5 0  0.3400000000004438 -0.5 0  0.3300000000004716 -0.5 0  0.3200000000004993 -0.5 0  0.3100000000005271 -0.5 0  0.3000000000005548 -0.5 0  0.2900000000005825 -0.5 0  0.2800000000006103 -0.5 0  0.2700000000006381 -0.5 0  0.2600000000006658 -0.5 0  0.2500000000006935 -0.5 0  0.2400000000007212 -0.5 0  0.230000000000749 -0.5 0  0.2200000000007767 -0.5 0  0.2100000000008044 -0.5 0  0.2000000000008322 -0.5 0  0.19000000000086 -0.5 0  0.1800000000008877 -0.5 0  0.1700000000009154 -0.5 0  0.1600000000009431 -0.5 0  0.1500000000009709 -0.5 0  0.1400000000009986 -0.5 0  0.1300000000010264 -0.5 0  0.1200000000010541 -0.5 0  0.1100000000010818 -0.5 0  0.1000000000011096 -0.5 0  0.09000000000113734 -0.5 0  0.08000000000116503 -0.5 0  0.07000000000119283 -0.5 0  0.06000000000122058 -0.5 0  0.05000000000124827 -0.5 0  0.04000000000127607 -0.5 0  0.03000000000130376 -0.5 0  0.02000000000133151 -0.5 0  0.01000000000135925 -0.5 0  1.376121439022882e-12 -0.5 0  -0.009999999998640763 -0.5 0  -0.01999999999866864 -0.5 0  -0.02999999999869629 -0.5 0  -0.03999999999872406 -0.5 0  -0.04999999999875182 -0.5 0  -0.05999999999877947 -0.5 0  -0.06999999999880724 -0.5 0  -0.079999999998835 -0.5 0  -0.08999999999886266 -0.5 0  -0.09999999999889042 -0.5 0  -0.1099999999989182 -0.5 0  -0.1199999999989459 -0.5 0  -0.1299999999989737 -0.5 0  -0.1399999999990014 -0.5 0  -0.1499999999990291 -0.5 0  -0.1599999999990568 -0.5 0  -0.1699999999990847 -0.5 0  -0.1799999999991124 -0.5 0  -0.1899999999991401 -0.5 0  -0.1999999999991678 -0.5 0  -0.2099999999991955 -0.5 0  -0.2199999999992234 -0.5 0  -0.2299999999992511 -0.5 0  -0.2399999999992788 -0.5 0  -0.2499999999993066 -0.5 0  -0.2599999999993342 -0.5 0  -0.269999999999362 -0.5 0  -0.2799999999993897 -0.5 0  -0.2899999999994175 -0.5 0  -0.2999999999994452 -0.5 0  -0.3099999999994729 -0.5 0  -0.3199999999995007 -0.5 0  -0.3299999999995284 -0.5 0  -0.3399999999995562 -0.5 0  -0.3499999999995839 -0.5 0  -0.3599999999996116 -0.5 0  -0.3699999999996393 -0.5 0  -0.379999999999667 -0.5 0  -0.3899999999996949 -0.5 0  -0.3999999999997226 -0.5 0  -0.4099999999997503 -0.5 0  -0.419999999999778 -0.5 0  -0.4299999999998058 -0.5 0  -0.4399999999998336 -0.5 0  -0.4499999999998613 -0.5 0  -0.4599999999998891 -0.5 0  -0.4699999999999167 -0.5 0  -0.4799999999999445 -0.5 0  -0.4899999999999722 -0.5 0  -0.5 -0.4900000000000277 0  -0.5 -0.4800000000000555 0  -0.5 -0.4700000000000832 0  -0.5 -0.4600000000001109 0  -0.5 -0.4500000000001387 0  -0.5 -0.4400000000001664 0  -0.5 -0.4300000000001942 0  -0.5 -0.4200000000002219 0  -0.5 -0.4100000000002497 0  -0.5 -0.4000000000002774 0  -0.5 -0.3900000000003052 0  -0.5 -0.3800000000003328 0  -0.5 -0.3700000000003606 0  -0.5 -0.3600000000003883 0  -0.5 -0.3500000000004161 0  -0.5 -0.3400000000004438 0  -0.5 -0.3300000000004716 0  -0.5 -0.3200000000004993 0  -0.5 -0.3100000000005271 0  -0.5 -0.3000000000005548 0  -0.5 -0.2900000000005825 0  -0.5 -0.2800000000006103 0  -0.5 -0.2700000000006381 0  -0.5 -0.2600000000006658 0  -0.5 -0.2500000000006935 0  -0.5 -0.2400000000007212 0  -0.5 -0.230000000000749 0  -0.5 -0.2200000000007767 0  -0.5 -0.2100000000008044 0  -0.5 -0.2000000000008322 0  -0.5 -0.19000000000086 0  -0.5 -0.1800000000008877 0  -0.5 -0.1700000000009154 0  -0.5 -0.1600000000009431 0  -0.5 -0.1500000000009709 0  -0.5 -0.1400000000009986 0  -0.5 -0.1300000000010264 0  -0.5 -0.1200000000010541 0  -0.5 -0.1100000000010818 0  -0.5 -0.1000000000011096 0  -0.5 -0.09000000000113734 0  -0.5 -0.08000000000116503 0  -0.5 -0.07000000000119283 0  -0.5 -0.06000000000122058 0  -0.5 -0.05000000000124827 0  -0.5 -0.04000000000127607 0  -0.5 -0.03000000000130376 0  -0.5 -0.02000000000133151 0  -0.5 -0.01000000000135925 0  -0.5 -1.376121439022882e-12 0  -0.5 0.009999999998640763 0  -0.5 0.01999999999866864 0  -0.5 0.02999999999869629 0  -0.5 0.03999999999872406 0  -0.5 0.04999999999875182 0  -0.5 0.05999999999877947 0  -0.5 0.06999999999880724 0  -0.5 0.079999999998835 0  -0.5 0.08999999999886266 0  -0.5 0.09999999999889042
[...]
<PointData  Vectors="f_27-0"> 
<DataArray  type="Float64"  Name="f_27-0"  NumberOfComponents="3" format="ascii">1.5736667409985729e-03 4.8678938158671435e-02 0.0000000000000000e+00  -2.1663547123593014e-03 4.8391516456389498e-02 0.0000000000000000e+00  -4.4219133269021742e-04 3.7904012698009637e-02 0.0000000000000000e+00  5.4706398782976317e-04 3.7808051477431118e-02 0.0000000000000000e+00  -1.6698804950486769e-03 6.4469026173193432e-03 0.0000000000000000e+00  1.6744532738532821e-03 6.4089394131202322e-03 0.0000000000000000e+00  -8.3358034242953525e-04 6.1586820817151654e-03 0.0000000000000000e+00  8.2873692082320875e-04 6.1849743905273650e-03 0.0000000000000000e+00  2.8413796189006267e-03 4.7934543487014133e-02 0.0000000000000000e+00  4.0653723704457594e-03 4.7110236835898912e-02 0.0000000000000000e+00  5.2392249196258085e-03 4.6211188178031423e-02 0.0000000000000000e+00  6.3594973372373895e-03 4.5241642469906869e-02 0.0000000000000000e+00  7.4202481119764558e-03 4.4208219009065262e-02 0.0000000000000000e+00  8.4192676650312066e-03 4.3115206907078353e-02 0.0000000000000000e+00  9.3515718193832413e-03 4.1970918598928028e-02 0.0000000000000000e+00  1.0216169764035731e-02 4.0779933556665843e-02 0.0000000000000000e+00  1.1010284195570609e-02 3.9549178907567296e-02 0.0000000000000000e+00  1.1731072204988853e-02 3.8286412643749275e-02 0.0000000000000000e+00  1.2379362409764828e-02 3.6997623014307535e-02 0.0000000000000000e+00  1.2954279671544422e-02 3.5688213601635578e-02 0.0000000000000000e+00  1.3455833580910449e-02 3.4365463795579775e-02 0.0000000000000000e+00  1.3885362850014358e-02 3.3033992587776707e-02 0.0000000000000000e+00  1.4242178797143765e-02 3.1702352994519484e-02 0.0000000000000000e+00  1.4529424391480125e-02 3.0373784267788285e-02 0.0000000000000000e+00  1.4748378000153861e-02 2.9053430457996243e-02 0.0000000000000000e+00  1.4900527070918788e-02 2.7747447979046130e-02 0.0000000000000000e+00  1.4988894988942788e-02 2.6460063748468970e-02 0.0000000000000000e+00  1.5016074574582185e-02 2.5194013933815179e-02 0.0000000000000000e+00  1.4984201751735276e-02 2.3954069383387872e-02 0.0000000000000000e+00  1.4896657623923480e-02 2.2742655334157039e-02 0.0000000000000000e+00  1.4756221003912216e-02 2.1562594653507981e-02 0.0000000000000000e+00  1.4565411712287207e-02 2.0418521714471765e-02 0.0000000000000000e+00  1.4327478472313381e-02 1.9310627487588515e-02 0.0000000000000000e+00  1.4045684214579445e-02 1.8241329652231481e-02 0.0000000000000000e+00  1.3722408516607967e-02 1.7212124574777797e-02 0.0000000000000000e+00  1.3360662614729509e-02 1.6225423241015929e-02 0.0000000000000000e+00  1.2963460946306137e-02 1.5280317006453690e-02 0.0000000000000000e+00  1.2533466774716359e-02 1.4378790418349540e-02 0.0000000000000000e+00  1.2072949999196858e-02 1.3521619025576330e-02 0.0000000000000000e+00  1.1584534696320451e-02 1.2709188625089898e-02 0.0000000000000000e+00  1.1070652470578309e-02 1.1942160226173781e-02 0.0000000000000000e+00  1.0533636813840576e-02 1.1219825480203147e-02 0.0000000000000000e+00  9.9753047918012625e-03 1.0542585908873813e-02 0.0000000000000000e+00  9.3977707342619964e-03 9.9100038578973423e-03 0.0000000000000000e+00  8.8031341575515523e-03 9.3228967163098506e-03 0.0000000000000000e+00  8.1928524330107666e-03 8.7803322595808204e-03 0.0000000000000000e+00  7.5687747687629191e-03 8.2819488890657246e-03 0.0000000000000000e+00  6.9323902949917308e-03 7.8284836684833162e-03 0.0000000000000000e+00  6.2852506390697347e-03 7.4186298797940357e-03 0.0000000000000000e+00  5.6287550923969452e-03 7.0515867777995603e-03 0.0000000000000000e+00  4.9639097271218036e-03 6.7289392903231576e-03 0.0000000000000000e+00  4.2921257502177108e-03 6.4490498690312828e-03 0.0000000000000000e+00  3.6144713082034239e-03 6.2119322810441080e-03 0.0000000000000000e+00  2.9318154480149545e-03 6.0170840806730496e-03 0.0000000000000000e+00  2.2457714967586617e-03 5.8651001164385800e-03 0.0000000000000000e+00  1.5566563326065322e-03 5.7548367811226216e-03 0.0000000000000000e+00  8.6606015887880051e-04 5.6861088611658474e-03 0.0000000000000000e+00  1.7434058895733328e-04 5.6597841959772095e-03 0.0000000000000000e+00  -5.1729738480049627e-04 5.6753971144220521e-03 0.0000000000000000e+00  -1.2077943763731998e-03 5.7320910348604001e-03 0.0000000000000000e+00  -1.8965871808627318e-03 5.8304409506718452e-03 0.0000000000000000e+00  -2.5823979158395979e-03 5.9710038452327812e-03 0.0000000000000000e+00  -3.2645159440358104e-03 6.1540066256730057e-03 0.0000000000000000e+00  -3.9416450504529627e-03 6.3790843295085204e-03 0.0000000000000000e+00  -4.6130335979094640e-03 6.6466878537376588e-03 0.0000000000000000e+00  -5.2773877155031235e-03 6.9565832787623566e-03 0.0000000000000000e+00  -5.9338058734806978e-03 7.3094606717342197e-03 0.0000000000000000e+00  -6.5809652511733497e-03 7.7049934066519016e-03 0.0000000000000000e+00  -7.2173356789039947e-03 8.1447138120844392e-03 0.0000000000000000e+00  -7.8420941306510186e-03 8.6275643671034751e-03 0.0000000000000000e+00  -8.4530871583723133e-03 9.1542545508332997e-03 0.0000000000000000e+00  -9.0491752229098603e-03 9.7250614912192026e-03 0.0000000000000000e+00  -9.6287074384256294e-03 1.0339828586902187e-02 0.0000000000000000e+00  -1.0189508391740092e-02 1.0998797086074229e-02 0.0000000000000000e+00  -1.0730438575266472e-02 1.1702537636021587e-02 0.0000000000000000e+00  -1.1248399567915505e-02 1.2450922390947045e-02 0.0000000000000000e+00  -1.1742591025387271e-02 1.3243421557294499e-02 0.0000000000000000e+00  -1.2209530861020659e-02 1.4079945637956733e-02 0.0000000000000000e+00  -1.2647692949060464e-02 1.4960840189593766e-02 0.0000000000000000e+00  -1.3054560438220496e-02 1.5883621982197449e-02 0.0000000000000000e+00  -1.3427305604934592e-02 1.6848362604906776e-02 0.0000000000000000e+00  -1.3763743208240834e-02 1.7855212927591138e-02 0.0000000000000000e+00  -1.4060419128910160e-02 1.8902021020395534e-02 0.0000000000000000e+00  -1.4315617527777266e-02 1.9987491310185020e-02 0.0000000000000000e+00  -1.4525196539808011e-02 2.1110801856301098e-02 0.0000000000000000e+00  -1.4687415187377203e-02 2.2267590793933416e-02 0.0000000000000000e+00  -1.4798960706432402e-02 2.3457759371174874e-02 0.0000000000000000e+00  -1.4856820406009550e-02 2.4678046599085061e-02 0.0000000000000000e+00  -1.4858562031980927e-02 2.5925326486700307e-02 0.0000000000000000e+00  -1.4801053064304353e-02 2.7195957837056542e-02 0.0000000000000000e+00  -1.4682385902795022e-02 2.8486759170248434e-02 0.0000000000000000e+00  -1.4498924935647823e-02 2.9794247016980271e-02 0.0000000000000000e+00  -1.4249871683008532e-02 3.1111870699454446e-02 0.0000000000000000e+00  -1.3932582726739872e-02 3.2436383112805924e-02 0.0000000000000000e+00  -1.3545048299429256e-02 3.3763230946018824e-02 0.0000000000000000e+00  -1.3086265699594792e-02 3.5085544149934263e-02 0.0000000000000000e+00  -1.2555458438420366e-02 3.6397791417796338e-02 0.0000000000000000e+00  -1.1951966552710898e-02 3.7693791030820600e-02 0.0000000000000000e+00  -1.1275982894168021e-02 3.8967867012744524e-02 0.0000000000000000e+00  -1.0526637340305126e-02 4.0214466699699671e-02 0.0000000000000000e+00  -9.7063850126386988e-03 4.1425567732697337e-02 0.0000000000000000e+00  -8.8162837208066135e-03 4.2594972704519139e-02 0.0000000000000000e+00  -7.8576231123659995e-03 4.3717472433646362e-02 0.0000000000000000e+00  -6.8351400849955158e-03 4.4784150143720426e-02 0.0000000000000000e+00  -5.7498052490760751e-03 4.5791341932818676e-02 0.0000000000000000e+00  -4.6068030962181615e-03 4.6731841555585886e-02 0.0000000000000000e+00  -3.4107999364571943e-03 4.7600152633069027e-02 0.0000000000000000e+00  -2.4823948312280276e-03 4.9691608011633734e-02 0.0000000000000000e+00  -2.8221604019073579e-03 5.1058482036004431e-02 0.0000000000000000e+00  -3.1854691035796976e-03 5.2499210280150650e-02 0.0000000000000000e+00  -3.5753012911728175e-03 5.4015927180516059e-02 0.0000000000000000e+00  -3.9925280584717678e-03 5.5616244646255565e-02 0.0000000000000000e+00  -4.4423477817285501e-03 5.7303760130518078e-02 0.0000000000000000e+00  -4.9218001410524575e-03 5.9085146264736516e-02 0.0000000000000000e+00  -5.4399963884611668e-03 6.0967585475384313e-02 0.0000000000000000e+00  -5.9984909533993521e-03 6.2956190680445862e-02 0.0000000000000000e+00  -6.5972680560092709e-03 6.5060441302829633e-02 0.0000000000000000e+00  -7.2435286042155812e-03 6.7287272491306824e-02 0.0000000000000000e+00  -7.9440653635328654e-03 6.9643172105260012e-02 0.0000000000000000e+00  -8.7031802748253617e-03 7.2138603261178449e-02 0.0000000000000000e+00  -9.5296808944816003e-03 7.4776316812274202e-02 0.0000000000000000e+00  -1.0426752005400180e-02 7.7568025409540567e-02 0.0000000000000000e+00  -1.1404035511034383e-02 8.0519342586616652e-02 0.0000000000000000e+00  -1.2473245307981157e-02 8.3629103261844542e-02 0.0000000000000000e+00  -1.3633959917163032e-02 8.6906339316062203e-02 0.0000000000000000e+00  -1.4890140144239833e-02 9.0340928321030217e-02 0.0000000000000000e+00  -1.6239202642661484e-02 9.3920156034445576e-02 0.0000000000000000e+00  -1.7652344271650345e-02 9.7629273035559086e-02 0.0000000000000000e+00  -1.9087171865734665e-02 1.0142858829643515e-01 0.0000000000000000e+00  -2.0445180572127183e-02 1.0527241343045585e-01 0.0000000000000000e+00  -2.1579757224757301e-02 1.0909526963097557e-01 0.0000000000000000e+00  -2.2240202924972891e-02 1.1280526592712482e-01 0.0000000000000000e+00  -2.2070297517270906e-02 1.1629956092347875e-01 0.0000000000000000e+00  -2.0587306426558961e-02 1.1944712984123682e-01 0.0000000000000000e+00  -1.7208701140727908e-02 1.2213343458180025e-01 0.0000000000000000e+00  -1.1304696294915362e-02 1.2425166742811583e-01 0.0000000000000000e+00  -2.4208482306593820e-03 1.2571511314941144e-01 0.0000000000000000e+00  9.5057736428871865e-03 1.2649926170111792e-01 0.0000000000000000e+00  2.3879148838225488e-02 1.2656339302592159e-01 0.0000000000000000e+00  3.9265564133674165e-02 1.2582572947766660e-01 0.0000000000000000e+00  5.3510634730181743e-02 1.2412988373345255e-01 0.0000000000000000e+00  6.3866042572900891e-02 1.2110703119434259e-01 0.0000000000000000e+00  6.7011637148978911e-02 1.1657320314131918e-01 0.0000000000000000e+00  5.9702392747241248e-02 1.1055726968540709e-01 0.0000000000000000e+00  3.9433183604708620e-02 1.0442877730338881e-01 0.0000000000000000e+00  8.2187960036178148e-03 1.0037059594619269e-01 0.0000000000000000e+00  -2.6440515958931449e-02 1.0160452111500330e-01 0.0000000000000000e+00  -5.2465123998960896e-02 1.0996513638092893e-01 0.0000000000000000e+00  -6.1494231726763882e-02 1.2439452144656596e-01 0.0000000000000000e+00  -5.6741401983409344e-02 1.4026452085259622e-01 0.0000000000000000e+00  -4.7286567597683148e-02 1.5351597272085479e-01 0.0000000000000000e+00  -3.8503440751055378e-02 1.6281464991003680e-01 0.0000000000000000e+00  -3.1073867627593385e-02 1.6888089629361791e-01 0.0000000000000000e+00  -2.4669230147593126e-02 1.7242139571850548e-01 0.0000000000000000e+00  -1.9136509059372902e-02 1.7407553844097420e-01 0.0000000000000000e+00  -1.4243887021324488e-02 1.7424692894014684e-01 0.0000000000000000e+00  -9.9314588413242314e-03 1.7322910826085092e-01 0.0000000000000000e+00  -6.1473808246903742e-03 1.7124082421698436e-01 0.0000000000000000e+00  -2.8536718647194227e-03 1.6848428387384023e-01 0.0000000000000000e+00  -1.1792251867209416e-05 1.6512179053051576e-01 0.0000000000000000e+00  2.4295760311480131e-03 1.6127671843868946e-01 0.0000000000000000e+00  4.4720426825615757e-03 1.5706348514291243e-01 0.0000000000000000e+00  6.1650751732184421e-03 1.5258025082841442e-01 0.0000000000000000e+00  7.5284080293141408e-03 1.4791925822072186e-01 0.0000000000000000e+00  8.5906428190637100e-03 1.4315852538690707e-01 0.0000000000000000e+00  9.3936092006765143e-03 1.3835135602354459e-01 0.0000000000000000e+00  9.9628862472248836e-03 1.3355679183681016e-01 0.0000000000000000e+00  1.0337100541873687e-02 1.2880810112041111e-01 0.0000000000000000e+00  1.0538742551357737e-02 1.2414685064401464e-01 0.0000000000000000e+00  1.0598747555915196e-02 1.1959670860629631e-01 0.0000000000000000e+00  1.0539125156789035e-02 1.1517756720899387e-01 0.0000000000000000e+00  1.0382466594677562e-02 1.1090448358018246e-01 0.0000000000000000e+00  1.0149081841527317e-02 1.0678408045553507e-01 0.0000000000000000e+00  9.8555100197788015e-03 1.0282892228188337e-01 0.0000000000000000e+00  9.5184276233038472e-03 9.9030160017308674e-02 0.0000000000000000e+00  9.1458574145620187e-03 9.5401168169855374e-02 0.0000000000000000e+00  8.7501920611569931e-03 9.1928791819300831e-02 0.0000000000000000e+00  8.3372346816180595e-03 8.8616149900651794e-02 0.0000000000000000e+00  7.9111693652140335e-03 8.5458408825599644e-02 0.0000000000000000e+00  7.4795011260216258e-03 8.2451935027982912e-02 0.0000000000000000e+00  7.0490928471785147e-03 7.9587008560254732e-02 0.0000000000000000e+00  6.6220319489651708e-03 7.6857459907342676e-02 0.0000000000000000e+00  6.1986332443583056e-03 7.4262447139147827e-02 0.0000000000000000e+00  5.7856486672199590e-03 7.1788881944891872e-02 0.0000000000000000e+00  5.3775044850133055e-03 6.9435917924134338e-02 0.0000000000000000e+00  4.9814017438607047e-03 6.7194185917986815e-02 0.0000000000000000e+00  4.5970523112083064e-03 6.5059975101157408e-02 0.0000000000000000e+00  4.2239272580958552e-03 6.3027176196164159e-02 0.0000000000000000e+00  3.8631002405501249e-03 6.1089340628013473e-02 0.0000000000000000e+00  3.5153687734037998e-03 5.9243375866110358e-02 0.0000000000000000e+00  3.1812814754685111e-03 5.7481596353150241e-02 0.0000000000000000e+00  2.8590766186268146e-03 5.5802317281573727e-02 0.0000000000000000e+00  2.5506925285002755e-03 5.4198616763348674e-02 0.0000000000000000e+00  2.2564123751010541e-03 5.2668289134715787e-02 0.0000000000000000e+00  1.9745242192135797e-03 5.1206190382242403e-02 0.0000000000000000e+00  1.7057701136018975e-03 4.9809823171605386e-02 0.0000000000000000e+00  1.4493457381248871e-03 4.8474679162315321e-02 0.0000000000000000e+00  1.2063655160794308e-03 4.7198633096444585e-02 0.0000000000000000e+00  9.7647174192385603e-04 4.5977523661930697e-02 0.0000000000000000e+00  7.5841930374388083e-04 4.4809590839659526e-02 0.0000000000000000e+00  5.5197350414571734e-04 4.3691354921090636e-02 0.0000000000000000e+00  3.5831802894780433e-04 4.2620258985427213e-02 0.0000000000000000e+00  1.7571325780517221e-04 4.1594909433605290e-02 0.0000000000000000e+00  5.0013145672772363e-06 4.0612168000228682e-02 0.0000000000000000e+00  -1.5399057132595831e-04 3.9670634797967758e-02 0.0000000000000000e+00  -3.0296151423114587e-04 3.8768543324564822e-02 0.0000000000000000e+00  3.9251467578248325e-04 3.7409229248604091e-02 0.0000000000000000e+00  1.2013674531824205e-03 3.6868034286749667e-02 0.0000000000000000e+00  1.9825662893278033e-03 3.6282014753002641e-02 0.0000000000000000e+00  2.7329156159837781e-03 3.5654069620198937e-02 0.0000000000000000e+00  3.4508509696360625e-03 3.4986350064325517e-02 0.0000000000000000e+00  4.1336138902828617e-03 3.4282480766420653e-02 0.0000000000000000e+00  4.7801257307587041e-03 3.3544368848935413e-02 0.0000000000000000e+00  5.3879673382147136e-03 3.2775715545131923e-02 0.0000000000000000e+00  5.9559762662412096e-03 3.1979558561898734e-02 0.0000000000000000e+00  6.4835709051766889e-03 3.1158795732379709e-02 0.0000000000000000e+00  6.9691277412132916e-03 3.0316813234420970e-02 0.0000000000000000e+00  7.4119885183017535e-03 2.9457499939563321e-02 0.0000000000000000e+00  7.8117252995908541e-03 2.8583591042839026e-02 0.0000000000000000e+00  8.1676093181943278e-03 2.7699194171511697e-02 0.0000000000000000e+00  8.4804722496552368e-03 2.6806317097372131e-02 0.0000000000000000e+00  8.7496573976481289e-03 2.5909150857157413e-02 0.0000000000000000e+00  8.9756650850434851e-03 2.5010984001734720e-02 0.0000000000000000e+00  9.1591848426820013e-03 2.4114385146058973e-02 0.0000000000000000e+00  9.3008041968135821e-03 2.3222113913760938e-02 0.0000000000000000e+00  9.4010298796800788e-03 2.2337814657242730e-02 0.0000000000000000e+00  9.4611609134026657e-03 2.1463523273168583e-02 0.0000000000000000e+00  9.4820431564844754e-03 2.0602241422789713e-02 0.0000000000000000e+00  9.4647866365698552e-03 1.9756402166970402e-02 0.0000000000000000e+00  9.4111840651125815e-03 1.8927386519416608e-02 0.0000000000000000e+00  9.3221690988652458e-03 1.8117919326508840e-02 0.0000000000000000e+00  9.1991830844997038e-03 1.7329789676119284e-02 0.0000000000000000e+00  9.0438797166360885e-03 1.6564870869923379e-02 0.0000000000000000e+00  8.8578832221026371e-03 1.5824193035206571e-02 0.0000000000000000e+00  8.6425060250720984e-03 1.5110264394110732e-02 0.0000000000000000e+00  8.3991960832699459e-03 1.4423737647337119e-02 0.0000000000000000e+00  8.1298465552495699e-03 1.3765852604244703e-02 0.0000000000000000e+00  7.8358176333007557e-03 1.3137534723396821e-02 0.0000000000000000e+00  7.5188633295660660e-03 1.2539489968077595e-02 0.0000000000000000e+00  7.1802767478983927e-03 1.1973092807317658e-02 0.0000000000000000e+00  6.8217803087513278e-03 1.1438761382765410e-02 0.0000000000000000e+00  6.4448405947836098e-03 1.0937461446460399e-02 0.0000000000000000e+00  6.0507081075196279e-03 1.0468874266454542e-02 0.0000000000000000e+00  5.6410896155435191e-03 1.0034186029751530e-02 0.0000000000000000e+00  5.2170909754539942e-03 9.6334967744766634e-03 0.0000000000000000e+00  4.7804071268118730e-03 9.2667322300612354e-03 0.0000000000000000e+00  4.3321127703161953e-03 8.9348143155160605e-03 0.0000000000000000e+00  3.8734154079055061e-03 8.6382975498216236e-03 0.0000000000000000e+00  3.4058250997775165e-03 8.3761272090320266e-03 0.0000000000000000e+00  2.9303129888789427e-03 8.1491193728063186e-03 0.0000000000000000e+00  2.4481699308993975e-03 7.9571905362860462e-03 0.0000000000000000e+00  1.9606644671000097e-03 7.8005203349823414e-03 0.0000000000000000e+00  1.4686995721990620e-03 7.6787057927313260e-03 0.0000000000000000e+00  9.7383532185142284e-04 7.5925520378112557e-03 0.0000000000000000e+00  4.7670411226203593e-04 7.5420274170807551e-03 0.0000000000000000e+00  -2.1190583323077926e-05 7.5264631274368611e-03 0.0000000000000000e+00  -5.1895444962977739e-04 7.5461716942382033e-03 0.0000000000000000e+00  -1.0155482031142487e-03 7.6015937705225028e-03 0.0000000000000000e+00  -1.5096172913149494e-03 7.6924424440506615e-03 0.0000000000000000e+00  -2.0002206185056599e-03 7.8183355547961682e-03 0.0000000000000000e+00  -2.4861244016834041e-03 7.9792187324411717e-03 0.0000000000000000e+00  -2.9664149584807905e-03 8.1752941652174747e-03 0.0000000000000000e+00  -3.4396413931509534e-03 8.4062815217361316e-03 0.0000000000000000e+00  -3.9048264585101341e-03 8.6724803994989354e-03 0.0000000000000000e+00  -4.3606163084652120e-03 8.9733173192607964e-03 0.0000000000000000e+00  -4.8057248001005430e-03 9.3090671948619381e-03 0.0000000000000000e+00  -5.2391741324724159e-03 9.6786397695486671e-03 0.0000000000000000e+00  -5.6592188498290168e-03 1.0082657092489834e-02 0.0000000000000000e+00  -6.0649432550067750e-03 1.0520398613056228e-02 0.0000000000000000e+00  -6.4547199542592734e-03 1.0991535226371248e-02 0.0000000000000000e+00  -6.8271056073396785e-03 1.1495638363143112e-02 0.0000000000000000e+00  -7.1808003420365365e-03 1.2032226796645741e-02 0.0000000000000000e+00  -7.5141238370598027e-03 1.2600479380803050e-02 0.0000000000000000e+00  -7.8260457658872445e-03 1.3199416690514512e-02 0.0000000000000000e+00  -8.1143257089578060e-03 1.3828852697404422e-02 0.0000000000000000e+00  -8.3781823947051762e-03 1.4487390254137084e-02 0.0000000000000000e+00  -8.6156344533923207e-03 1.5173880330231334e-02 0.0000000000000000e+00  -8.8250959467628520e-03 1.5888005536690470e-02 0.0000000000000000e+00  -9.0051569984743261e-03 1.6628224230699967e-02 0.0000000000000000e+00  -9.1543757173583561e-03 1.7392113514900470e-02 0.0000000000000000e+00  -9.2714100648498346e-03 1.8178765319702240e-02 0.0000000000000000e+00  -9.3541457745261406e-03 1.8986197491012623e-02 0.0000000000000000e+00  -9.4022457573755235e-0