<?xml version="1.0"?>
<VTKFile type="UnstructuredGrid"  version="0.1"  >
<UnstructuredGrid>
<Piece  NumberOfPoints="16275" NumberOfCells="32468">
<Points>
<DataArray  type="Float64"  NumberOfComponents="3"  format="ascii">-0.5 0.5 0  0.5 0.5 0  0.5 -0.5 0  -0.5 -0.5 0  -1 1 0  1 1 0  1 -1 0  -1 -1 0  -0.4900000000000277 0.5 0  -0.4800000000000555 0.5 0  -0.4700000000000832 0.5 0  -0.4600000000001109 0.5 0  -0.4500000000001387 0.5 0  -0.4400000000001664 0.5 0  -0.4300000000001942 0.5 0  -0.4200000000002219 0.5 0  -0.4100000000002497 0.5 0  -0.4000000000002774 0.5 0  -0.3900000000003052 0.5 0  -0.3800000000003328 0.5 0  -0.3700000000003606 0.5 0  -0.3600000000003883 0.5 0  -0.3500000000004161 0.5 0  -0.3400000000004438 0.5 0  -0.3300000000004716 0.5 0  -0.3200000000004993 0.5 0  -0.3100000000005271 0.5 0  -0.3000000000005548 0.5 0  -0.2900000000005825 0.5 0  -0.2800000000006103 0.5 0  -0.2700000000006381 0.5 0  -0.2600000000006658 0.5 0  -0.2500000000006935 0.5 0  -0.2400000000007212 0.5 0  -0.230000000000749 0.5 0  -0.2200000000007767 0.5 0  -0.2100000000008044 0.5 0  -0.2000000000008322 0.5 0  -0.19000000000086 0.5 0  -0.1800000000008877 0.5 0  -0.1700000000009154 0.5 0  -0.1600000000009431 0.5 0  -0.1500000000009709 0.5 0  -0.1400000000009986 0.5 0  -0.1300000000010264 0.5 0  -0.1200000000010541 0.5 0  -0.1100000000010818 0.5 0  -0.1000000000011096 0.5 0  -0.09000000000113734 0.5 0  -0.08000000000116503 0.5 0  -0.07000000000119283 0.5 0  -0.06000000000122058 0.5 0  -0.05000000000124827 0.5 0  -0.04000000000127607 0.5 0  -0.03000000000130376 0.5 0  -0.02000000000133151 0.5 0  -0.01000000000135925 0.5 0  -1.376121439022882e-12 0.5 0  0.009999999998640763 0.5 0  0.01999999999866864 0.5 0  0.02999999999869629 0.5 0  0.03999999999872406 0.5 0  0.04999999999875182 0.5 0  0.05999999999877947 0.5 0  0.06999999999880724 0.5 0  0.079999999998835 0.5 0  0.08999999999886266 0.5 0  0.09999999999889042 0.5 0  0.1099999999989182 0.5 0  0.1199999999989459 0.5 0  0.1299999999989737 0.5 0  0.1399999999990014 0.5 0  0.1499999999990291 0.5 0  0.1599999999990568 0.5 0  0.1699999999990847 0.5 0  0.1799999999991124 0.5 0  0.1899999999991401 0.5 0  0.1999999999991678 0.5 0  0.2099999999991955 0.5 0  0.2199999999992234 0.5 0  0.2299999999992511 0.5 0  0.2399999999992788 0.5 0  0.2499999999993066 0.5 0  0.2599999999993342 0.5 0  0.269999999999362 0.5 0  0.2799999999993897 0.5 0  0.2899999999994175 0.5 0  0.2999999999994452 0.5 0  0.3099999999994729 0.5 0  0.3199999999995007 0.5 0  0.3299999999995284 0.5 0  0.3399999999995562 0.5 0  0.3499999999995839 0.5 0  0.3599999999996116 0.5 0  0.3699999999996393 0.5 0  0.379999999999667 0.5 0  0.3899999999996949 0.5 0  0.3999999999997226 0.5 0  0.4099999999997503 0.5 0  0.419999999999778 0.5 0  0.4299999999998058 0.5 0  0.4399999999998336 0.5 0  0.4499999999998613 0.5 0  0.4599999999998891 0.5 0  0.4699999999999167 0.5 0  0.4799999999999445 0.5 0  0.4899999999999722 0.5 0  0.5 0.4900000000000277 0  0.5 0.4800000000000555 0  0.5 0.4700000000000832 0  0.5 0.4600000000001109 0  0.5 0.4500000000001387 0  0.5 0.4400000000001664 0  0.5 0.4300000000001942 0  0.5 0.4200000000002219 0  0.5 0.4100000000002497 0  0.5 0.4000000000002774 0  0.5 0.3900000000003052 0  0.5 0.3800000000003328 0  0.5 0.3700000000003606 0  0.5 0.3600000000003883 0  0.5 0.3500000000004161 0  0.5 0.3400000000004438 0  0.5 0.3300000000004716 0  0.5 0.3200000000004993 0  0.5 0.3100000000005271 0  0.5 0.3000000000005548 0  0.5 0.2900000000005825 0  0.5 0.2800000000006103 0  0.5 0.2700000000006381 0  0.5 0.2600000000006658 0  0.5 0.2500000000006935 0  0.5 0.2400000000007212 0  0.5 0.230000000000749 0  0.5 0.2200000000007767 0  0.5 0.2100000000008044 0  0.5 0.2000000000008322 0  0.5 0.19000000000086 0  0.5 0.1800000000008877 0  0.5 0.1700000000009154 0  0.5 0.1600000000009431 0  0.5 0.1500000000009709 0  0.5 0.1400000000009986 0  0.5 0.1300000000010264 0  0.5 0.1200000000010541 0  0.5 0.1100000000010818 0  0.5 0.1000000000011096 0  0.5 0.09000000000113734 0  0.5 0.08000000000116503 0  0.5 0.07000000000119283 0  0.5 0.06000000000122058 0  0.5 0.05000000000124827 0  0.5 0.04000000000127607 0  0.5 0.03000000000130376 0  0.5 0.02000000000133151 0  0.5 0.01000000000135925 0  0.5 1.376121439022882e-12 0  0.5 -0.009999999998640763 0  0.5 -0.01999999999866864 0  0.5 -0.02999999999869629 0  0.5 -0.03999999999872406 0  0.5 -0.04999999999875182 0  0.5 -0.05999999999877947 0  0.5 -0.06999999999880724 0  0.5 -0.079999999998835 0  0.5 -0.08999999999886266 0  0.5 -0.09999999999889042 0  0.5 -0.1099999999989182 0  0.5 -0.1199999999989459 0  0.5 -0.1299999999989737 0  0.5 -0.1399999999990014 0  0.5 -0.1499999999990291 0  0.5 -0.1599999999990568 0  0.5 -0.1699999999990847 0  0.5 -0.1799999999991124 0  0.5 -0.1899999999991401 0  0.5 -0.1999999999991678 0  0.5 -0.2099999999991955 0  0.5 -0.2199999999992234 0  0.5 -0.2299999999992511 0  0.5 -0.2399999999992788 0  0.5 -0.2499999999993066 0  0.5 -0.2599999999993342 0  0.5 -0.269999999999362 0  0.5 -0.2799999999993897 0  0.5 -0.2899999999994175 0  0.5 -0.2999999999994452 0  0.5 -0.3099999999994729 0  0.5 -0.3199999999995007 0  0.5 -0.3299999999995284 0  0.5 -0.3399999999995562 0  0.5 -0.3499999999995839 0  0.5 -0.3599999999996116 0  0.5 -0.3699999999996393 0  0.5 -0.379999999999667 0  0.5 -0.3899999999996949 0  0.5 -0.3999999999997226 0  0.5 -0.4099999999997503 0  0.5 -0.419999999999778 0  0.5 -0.4299999999998058 0  0.5 -0.4399999999998336 0  0.5 -0.4499999999998613 0  0.5 -0.4599999999998891 0  0.5 -0.4699999999999167 0  0.5 -0.4799999999999445 0  0.5 -0.4899999999999722 0  0.4900000000000277 -0.5 0  0.4800000000000555 -0.5 0  0.4700000000000832 -0.5 0  0.4600000000001109 -0.5 0  0.4500000000001387 -0.5 0  0.4400000000001664 -0.5 0  0.4300000000001942 -0.5 0  0.4200000000002219 -0.5 0  0.4100000000002497 -0.5 0  0.4000000000002774 -0.5 0  0.3900000000003052 -0.5 0  0.3800000000003328 -0.5 0  0.3700000000003606 -0.5 0  0.3600000000003883 -0.5 0  0.3500000000004161 -0.5 0  0.3400000000004438 -0.5 0  0.3300000000004716 -0.5 0  0.3200000000004993 -0.5 0  0.3100000000005271 -0.5 0  0.3000000000005548 -0.5 0  0.2900000000005825 -0.5 0  0.2800000000006103 -0.5 0  0.2700000000006381 -0.5 0  0.2600000000006658 -0.5 0  0.2500000000006935 -0.5 0  0.2400000000007212 -0.5 0  0.230000000000749 -0.5 0  0.2200000000007767 -0.5 0  0.2100000000008044 -0.5 0  0.2000000000008322 -0.5 0  0.19000000000086 -0.5 0  0.1800000000008877 -0.5 0  0.1700000000009154 -0.5 0  0.1600000000009431 -0.5 0  0.1500000000009709 -0.5 0  0.1400000000009986 -0.5 0  0.1300000000010264 -0.5 0  0.1200000000010541 -0.5 0  0.1100000000010818 -0.5 0  0.1000000000011096 -0.5 0  0.09000000000113734 -0.5 0  0.08000000000116503 -0.5 0  0.07000000000119283 -0.5 0  0.06000000000122058 -0.5 0  0.05000000000124827 -0.5 0  0.04000000000127607 -0.5 0  0.03000000000130376 -0.5 0  0.02000000000133151 -0.5 0  0.01000000000135925 -0.5 0  1.376121439022882e-12 -0.5 0  -0.009999999998640763 -0.5 0  -0.01999999999866864 -0.5 0  -0.02999999999869629 -0.5 0  -0.03999999999872406 -0.5 0  -0.04999999999875182 -0.5 0  -0.05999999999877947 -0.5 0  -0.06999999999880724 -0.5 0  -0.079999999998835 -0.5 0  -0.08999999999886266 -0.5 0  -0.09999999999889042 -0.5 0  -0.1099999999989182 -0.5 0  -0.1199999999989459 -0.5 0  -0.1299999999989737 -0.5 0  -0.1399999999990014 -0.5 0  -0.1499999999990291 -0.5 0  -0.1599999999990568 -0.5 0  -0.1699999999990847 -0.5 0  -0.1799999999991124 -0.5 0  -0.1899999999991401 -0.5 0  -0.1999999999991678 -0.5 0  -0.2099999999991955 -0.5 0  -0.2199999999992234 -0.5 0  -0.2299999999992511 -0.5 0  -0.2399999999992788 -0.5 0  -0.2499999999993066 -0.5 0  -0.2599999999993342 -0.5 0  -0.269999999999362 -0.5 0  -0.2799999999993897 -0.5 0  -0.2899999999994175 -0.5 0  -0.2999999999994452 -0.5 0  -0.3099999999994729 -0.5 0  -0.3199999999995007 -0.5 0  -0.3299999999995284 -0.5 0  -0.3399999999995562 -0.5 0  -0.3499999999995839 -0.5 0  -0.3599999999996116 -0.5 0  -0.3699999999996393 -0.5 0  -0.379999999999667 -0.5 0  -0.3899999999996949 -0.5 0  -0.3999999999997226 -0.5 0  -0.4099999999997503 -0.5 0  -0.419999999999778 -0.5 0  -0.4299999999998058 -0.5 0  -0.4399999999998336 -0.5 0  -0.4499999999998613 -0.5 0  -0.4599999999998891 -0.5 0  -0.4699999999999167 -0.5 0  -0.4799999999999445 -0.5 0  -0.4899999999999722 -0.5 0  -0.5 -0.4900000000000277 0  -0.5 -0.4800000000000555 0  -0.5 -0.4700000000000832 0  -0.5 -0.4600000000001109 0  -0.5 -0.4500000000001387 0  -0.5 -0.4400000000001664 0  -0.5 -0.4300000000001942 0  -0.5 -0.4200000000002219 0  -0.5 -0.4100000000002497 0  -0.5 -0.4000000000002774 0  -0.5 -0.3900000000003052 0  -0.5 -0.3800000000003328 0  -0.5 -0.3700000000003606 0  -0.5 -0.3600000000003883 0  -0.5 -0.3500000000004161 0  -0.5 -0.3400000000004438 0  -0.5 -0.3300000000004716 0  -0.5 -0.3200000000004993 0  -0.5 -0.3100000000005271 0  -0.5 -0.3000000000005548 0  -0.5 -0.2900000000005825 0  -0.5 -0.2800000000006103 0  -0.5 -0.2700000000006381 0  -0.5 -0.2600000000006658 0  -0.5 -0.2500000000006935 0  -0.5 -0.2400000000007212 0  -0.5 -0.230000000000749 0  -0.5 -0.2200000000007767 0  -0.5 -0.2100000000008044 0  -0.5 -0.2000000000008322 0  -0.5 -0.19000000000086 0  -0.5 -0.1800000000008877 0  -0.5 -0.1700000000009154 0  -0.5 -0.1600000000009431 0  -0.5 -0.1500000000009709 0  -0.5 -0.1400000000009986 0  -0.5 -0.1300000000010264 0  -0.5 -0.1200000000010541 0  -0.5 -0.1100000000010818 0  -0.5 -0.1000000000011096 0  -0.5 -0.09000000000113734 0  -0.5 -0.08000000000116503 0  -0.5 -0.07000000000119283 0  -0.5 -0.06000000000122058 0  -0.5 -0.05000000000124827 0  -0.5 -0.04000000000127607 0  -0.5 -0.03000000000130376 0  -0.5 -0.02000000000133151 0  -0.5 -0.01000000000135925 0  -0.5 -1.376121439022882e-12 0  -0.5 0.009999999998640763 0  -0.5 0.01999999999866864 0  -0.5 0.02999999999869629 0  -0.5 0.03999999999872406 0  -0.5 0.04999999999875182 0  -0.5 0.05999999999877947 0  -0.5 0.06999999999880724 0  -0.5 0.079999999998835 0  -0.5 0.08999999999886266 0  -0.5 0.09999999999889042
[...]
<PointData  Vectors="f_27-0"> 
<DataArray  type="Float64"  Name="f_27-0"  NumberOfComponents="3" format="ascii">1.5217199292493200e-03 4.8413314129370659e-02 0.0000000000000000e+00  -2.0967850346493154e-03 4.8143581050864456e-02 0.0000000000000000e+00  -4.0672836871845293e-04 3.8066716550187334e-02 0.0000000000000000e+00  5.1547610682719223e-04 3.7972787451506715e-02 0.0000000000000000e+00  -1.6461424155134654e-03 6.4207772223151272e-03 0.0000000000000000e+00  1.6432646372222877e-03 6.3902536773374104e-03 0.0000000000000000e+00  -8.4147537348741705e-04 6.1586509842979512e-03 0.0000000000000000e+00  8.3648331738952987e-04 6.1822548009638810e-03 0.0000000000000000e+00  2.7771731630452079e-03 4.7675958881017715e-02 0.0000000000000000e+00  3.9895194977970635e-03 4.6859723740150593e-02 0.0000000000000000e+00  5.1524681147208720e-03 4.5969666263856686e-02 0.0000000000000000e+00  6.2626211187271916e-03 4.5009943812101459e-02 0.0000000000000000e+00  7.3141389655033999e-03 4.3987043271037377e-02 0.0000000000000000e+00  8.3048245693109288e-03 4.2905177094602065e-02 0.0000000000000000e+00  9.2297617757773915e-03 4.1772474485683171e-02 0.0000000000000000e+00  1.0087947065913348e-02 4.0593467858165415e-02 0.0000000000000000e+00  1.0876620343366233e-02 3.9374942209935031e-02 0.0000000000000000e+00  1.1592954352896255e-02 3.8124509589383106e-02 0.0000000000000000e+00  1.2237725084014271e-02 3.6848073619511902e-02 0.0000000000000000e+00  1.2810040126575389e-02 3.5550965200334343e-02 0.0000000000000000e+00  1.3309872933614044e-02 3.4240364989637680e-02 0.0000000000000000e+00  1.3738502075142328e-02 3.2920827987049983e-02 0.0000000000000000e+00  1.4095211441142978e-02 3.1600785997895599e-02 0.0000000000000000e+00  1.4383062465910269e-02 3.0283466825098256e-02 0.0000000000000000e+00  1.4603290927389182e-02 2.8973957208998587e-02 0.0000000000000000e+00  1.4757323609948565e-02 2.7678359326150457e-02 0.0000000000000000e+00  1.4848111365098072e-02 2.6400864167197842e-02 0.0000000000000000e+00  1.4878197290753238e-02 2.5144209688719828e-02 0.0000000000000000e+00  1.4849657289305004e-02 2.3913140103265729e-02 0.0000000000000000e+00  1.4765811675181652e-02 2.2710079115585920e-02 0.0000000000000000e+00  1.4629390233530938e-02 2.1537848959460766e-02 0.0000000000000000e+00  1.4442856404881840e-02 2.0401053800094673e-02 0.0000000000000000e+00  1.4209418960414645e-02 1.9299934933716064e-02 0.0000000000000000e+00  1.3932294053394710e-02 1.8236905425480579e-02 0.0000000000000000e+00  1.3613823787116125e-02 1.7213485664386144e-02 0.0000000000000000e+00  1.3256977018559737e-02 1.6232083828012077e-02 0.0000000000000000e+00  1.2864747473050563e-02 1.5291839758079148e-02 0.0000000000000000e+00  1.2439760451218515e-02 1.4394752503971080e-02 0.0000000000000000e+00  1.1984267773450633e-02 1.3541608048372221e-02 0.0000000000000000e+00  1.1500873556615162e-02 1.2732825090662710e-02 0.0000000000000000e+00  1.0991985530185308e-02 1.1969085162293655e-02 0.0000000000000000e+00  1.0459927486962246e-02 1.1249706508138262e-02 0.0000000000000000e+00  9.9065068723446902e-03 1.0575116215129450e-02 0.0000000000000000e+00  9.3338245299927451e-03 9.9448915686928055e-03 0.0000000000000000e+00  8.7439728985482957e-03 9.3598766792501956e-03 0.0000000000000000e+00  8.1384070722582864e-03 8.8191523608062705e-03 0.0000000000000000e+00  7.5189750700562748e-03 8.3223888109729711e-03 0.0000000000000000e+00  6.8871603460337544e-03 7.8703250927902764e-03 0.0000000000000000e+00  6.2445237283962861e-03 7.4616881140145384e-03 0.0000000000000000e+00  5.5924636868317943e-03 7.0956941406819249e-03 0.0000000000000000e+00  4.9319827674036386e-03 6.7739257189027230e-03 0.0000000000000000e+00  4.2644991397757176e-03 6.4947656017267600e-03 0.0000000000000000e+00  3.5910850270040547e-03 6.2582346662214440e-03 0.0000000000000000e+00  2.9126201641739417e-03 6.0638452845258334e-03 0.0000000000000000e+00  2.2307173587843591e-03 5.9121909498562513e-03 0.0000000000000000e+00  1.5457113960604038e-03 5.8021503061565444e-03 0.0000000000000000e+00  8.5919098906915277e-04 5.7335390817322704e-03 0.0000000000000000e+00  1.7152242108550502e-04 5.7072214354738256e-03 0.0000000000000000e+00  -5.1608258352742740e-04 5.7227339722332165e-03 0.0000000000000000e+00  -1.2025542498698364e-03 5.7792263009396484e-03 0.0000000000000000e+00  -1.8873215216838692e-03 5.8772731956653048e-03 0.0000000000000000e+00  -2.5691011516707852e-03 6.0174296082456712e-03 0.0000000000000000e+00  -3.2471743761888034e-03 6.1999148278711743e-03 0.0000000000000000e+00  -3.9202393901606094e-03 6.4243576317079562e-03 0.0000000000000000e+00  -4.5875363522751645e-03 6.6912045127269495e-03 0.0000000000000000e+00  -5.2477656074066395e-03 7.0002190287200162e-03 0.0000000000000000e+00  -5.9000204157829460e-03 7.3520804351011586e-03 0.0000000000000000e+00  -6.5429736569499203e-03 7.7464526095181539e-03 0.0000000000000000e+00  -7.1750918939053427e-03 8.1848499480046844e-03 0.0000000000000000e+00  -7.7955471225537440e-03 8.6662067344297020e-03 0.0000000000000000e+00  -8.4021889515122714e-03 9.1912187582536553e-03 0.0000000000000000e+00  -8.9938728439073901e-03 9.7601447913989101e-03 0.0000000000000000e+00  -9.5689498960784495e-03 1.0372818470664801e-02 0.0000000000000000e+00  -1.0125251575870704e-02 1.1029460645693736e-02 0.0000000000000000e+00  -1.0661632897099560e-02 1.1730615039589663e-02 0.0000000000000000e+00  -1.1175012285945550e-02 1.2476142710398191e-02 0.0000000000000000e+00  -1.1664587888711515e-02 1.3265488257243777e-02 0.0000000000000000e+00  -1.2126897573744985e-02 1.4098551591728606e-02 0.0000000000000000e+00  -1.2560417679132421e-02 1.4975640642671754e-02 0.0000000000000000e+00  -1.2962657458856377e-02 1.5894271132143551e-02 0.0000000000000000e+00  -1.3330807687191087e-02 1.6854480936273078e-02 0.0000000000000000e+00  -1.3662696243336540e-02 1.7856403874534965e-02 0.0000000000000000e+00  -1.3954901539681219e-02 1.8897869736925824e-02 0.0000000000000000e+00  -1.4205734963055697e-02 1.9977558924343282e-02 0.0000000000000000e+00  -1.4411076168697402e-02 2.1094625379315259e-02 0.0000000000000000e+00  -1.4569234285205073e-02 2.2244721646572655e-02 0.0000000000000000e+00  -1.4676924995776174e-02 2.3427717982900314e-02 0.0000000000000000e+00  -1.4731180058883499e-02 2.4640335846577717e-02 0.0000000000000000e+00  -1.4729610114968541e-02 2.5879457847649452e-02 0.0000000000000000e+00  -1.4669143317323699e-02 2.7141448817172228e-02 0.0000000000000000e+00  -1.4547902157949211e-02 2.8423113862820547e-02 0.0000000000000000e+00  -1.4362328497985556e-02 2.9720998447866170e-02 0.0000000000000000e+00  -1.4111667324116204e-02 3.1028571772834652e-02 0.0000000000000000e+00  -1.3793337702413939e-02 3.2342621559455241e-02 0.0000000000000000e+00  -1.3405380069637221e-02 3.3658591052750562e-02 0.0000000000000000e+00  -1.2946858350676346e-02 3.4969700089980904e-02 0.0000000000000000e+00  -1.2417040294719989e-02 3.6270461185781699e-02 0.0000000000000000e+00  -1.1815336130783376e-02 3.7554767519467978e-02 0.0000000000000000e+00  -1.1141954764974578e-02 3.8816989136747415e-02 0.0000000000000000e+00  -1.0396103580905643e-02 4.0051655997985117e-02 0.0000000000000000e+00  -9.5802407973201269e-03 4.1250858571236559e-02 0.0000000000000000e+00  -8.6954656084604481e-03 4.2408516844655381e-02 0.0000000000000000e+00  -7.7430891376977160e-03 4.3519474043917199e-02 0.0000000000000000e+00  -6.7278093661573366e-03 4.4574991100182322e-02 0.0000000000000000e+00  -5.6506218925014657e-03 4.5571476985096310e-02 0.0000000000000000e+00  -4.5166598349976163e-03 4.6501854927190729e-02 0.0000000000000000e+00  -3.3305518436456756e-03 4.7360770117534451e-02 0.0000000000000000e+00  -2.4074833450962270e-03 4.9432198842369636e-02 0.0000000000000000e+00  -2.7413885393457751e-03 5.0786765617603744e-02 0.0000000000000000e+00  -3.0982967365611271e-03 5.2214250093252007e-02 0.0000000000000000e+00  -3.4810791200219683e-03 5.3716744389641288e-02 0.0000000000000000e+00  -3.8905207477389460e-03 5.5301748558997922e-02 0.0000000000000000e+00  -4.3316563831145294e-03 5.6972815521837930e-02 0.0000000000000000e+00  -4.8014575317230652e-03 5.8736519544735369e-02 0.0000000000000000e+00  -5.3088808127554976e-03 6.0599981447927082e-02 0.0000000000000000e+00  -5.8552870953945870e-03 6.2568247352702430e-02 0.0000000000000000e+00  -6.4404226570790001e-03 6.4650723188989928e-02 0.0000000000000000e+00  -7.0712155243802151e-03 6.6854359159001758e-02 0.0000000000000000e+00  -7.7541451350031853e-03 6.9185694827981412e-02 0.0000000000000000e+00  -8.4932453645529902e-03 7.1655297062321946e-02 0.0000000000000000e+00  -9.2969199200228364e-03 7.4266202275898752e-02 0.0000000000000000e+00  -1.0167923540650131e-02 7.7030499534135322e-02 0.0000000000000000e+00  -1.1115758496868021e-02 7.9954340438866733e-02 0.0000000000000000e+00  -1.2151946863209579e-02 8.3037684144833299e-02 0.0000000000000000e+00  -1.3276413301672901e-02 8.6290834681424788e-02 0.0000000000000000e+00  -1.4494559569958342e-02 8.9705991615187275e-02 0.0000000000000000e+00  -1.5806907082785857e-02 9.3273229319788903e-02 0.0000000000000000e+00  -1.7190529755124181e-02 9.6981756131734265e-02 0.0000000000000000e+00  -1.8613585524415787e-02 1.0079714344812458e-01 0.0000000000000000e+00  -1.9995458152078004e-02 1.0467948264668124e-01 0.0000000000000000e+00  -2.1215407350085497e-02 1.0857026518156541e-01 0.0000000000000000e+00  -2.2060527985769244e-02 1.1238544291253590e-01 0.0000000000000000e+00  -2.2225848587665738e-02 1.1602484839265451e-01 0.0000000000000000e+00  -2.1280989887726955e-02 1.1936027830646136e-01 0.0000000000000000e+00  -1.8691398679609790e-02 1.2226823286952003e-01 0.0000000000000000e+00  -1.3822639254004628e-02 1.2462054235723742e-01 0.0000000000000000e+00  -6.1404461919067005e-03 1.2630714688495226e-01 0.0000000000000000e+00  4.6281104875270894e-03 1.2727208276424457e-01 0.0000000000000000e+00  1.8196913958422736e-02 1.2747201867408364e-01 0.0000000000000000e+00  3.3474164949284728e-02 1.2684510396567072e-01 0.0000000000000000e+00  4.8605905727057877e-02 1.2530740299106249e-01 0.0000000000000000e+00  6.1028900223207040e-02 1.2254513434792662e-01 0.0000000000000000e+00  6.7572210593999191e-02 1.1834029268897203e-01 0.0000000000000000e+00  6.4919180686255101e-02 1.1249106667135680e-01 0.0000000000000000e+00  4.9826052564061814e-02 1.0589493069801792e-01 0.0000000000000000e+00  2.2271801491289090e-02 1.0023684633378525e-01 0.0000000000000000e+00  -1.2873590265545066e-02 9.8794023008085569e-02 0.0000000000000000e+00  -4.4518934445627815e-02 1.0413441372019297e-01 0.0000000000000000e+00  -6.1220091577954057e-02 1.1667350502113574e-01 0.0000000000000000e+00  -6.1050970931735574e-02 1.3293522200214056e-01 0.0000000000000000e+00  -5.2114727101705727e-02 1.4795827073554849e-01 0.0000000000000000e+00  -4.2412028525302757e-02 1.5904673186645768e-01 0.0000000000000000e+00  -3.4107582815216704e-02 1.6646480498198249e-01 0.0000000000000000e+00  -2.7052164662011876e-02 1.7096078078177770e-01 0.0000000000000000e+00  -2.1025203107442318e-02 1.7332439408380781e-01 0.0000000000000000e+00  -1.5737779082117695e-02 1.7402808257060778e-01 0.0000000000000000e+00  -1.1103068598953485e-02 1.7341622331618317e-01 0.0000000000000000e+00  -7.0531162036951795e-03 1.7173918029564333e-01 0.0000000000000000e+00  -3.5363504331711411e-03 1.6921809065047466e-01 0.0000000000000000e+00  -5.0752251722036359e-04 1.6603108937924832e-01 0.0000000000000000e+00  2.0913103045066732e-03 1.6231237335381721e-01 0.0000000000000000e+00  4.2643378325954396e-03 1.5818499938927588e-01 0.0000000000000000e+00  6.0649027338228693e-03 1.5375425478327850e-01 0.0000000000000000e+00  7.5150259663994915e-03 1.4911904252091560e-01 0.0000000000000000e+00  8.6463138877697267e-03 1.4436249823717615e-01 0.0000000000000000e+00  9.5026974246178540e-03 1.3954306539124375e-01 0.0000000000000000e+00  1.0112097443775682e-02 1.3472344369873498e-01 0.0000000000000000e+00  1.0515040125740829e-02 1.2994019725437775e-01 0.0000000000000000e+00  1.0736010032684417e-02 1.2523752437465002e-01 0.0000000000000000e+00  1.0807764621118886e-02 1.2064152585107851e-01 0.0000000000000000e+00  1.0753942639627388e-02 1.1617377997814934e-01 0.0000000000000000e+00  1.0598474515162213e-02 1.1185089188885625e-01 0.0000000000000000e+00  1.0362832008628867e-02 1.0768053535277988e-01 0.0000000000000000e+00  1.0064465667704893e-02 1.0367622494997590e-01 0.0000000000000000e+00  9.7209465991806281e-03 9.9829509322770765e-02 0.0000000000000000e+00  9.3407544965991244e-03 9.6154542364414744e-02 0.0000000000000000e+00  8.9368466739041409e-03 9.2638190256314062e-02 0.0000000000000000e+00  8.5152499138997639e-03 8.9283847223110391e-02 0.0000000000000000e+00  8.0804529066744162e-03 8.6086794058645097e-02 0.0000000000000000e+00  7.6401814014595820e-03 8.3043459151057084e-02 0.0000000000000000e+00  7.2014455352105711e-03 8.0143978948971253e-02 0.0000000000000000e+00  6.7663865288939149e-03 7.7382111946957155e-02 0.0000000000000000e+00  6.3352836312756964e-03 7.4757080517743699e-02 0.0000000000000000e+00  5.9150264557731825e-03 7.2255476366392332e-02 0.0000000000000000e+00  5.4999108639529250e-03 6.9876492763393847e-02 0.0000000000000000e+00  5.0972534071610613e-03 6.7610550111914108e-02 0.0000000000000000e+00  4.7067146699988367e-03 6.5453864229984351e-02 0.0000000000000000e+00  4.3277307826606066e-03 6.3400189908400365e-02 0.0000000000000000e+00  3.9613694001979132e-03 6.1442954906970854e-02 0.0000000000000000e+00  3.6083990032899759e-03 5.9578993141324282e-02 0.0000000000000000e+00  3.2693664904836581e-03 5.7800464631846023e-02 0.0000000000000000e+00  2.9424604716150739e-03 5.6105640556194498e-02 0.0000000000000000e+00  2.6296452731067008e-03 5.4487459174997289e-02 0.0000000000000000e+00  2.3311729974898809e-03 5.2943662165349077e-02 0.0000000000000000e+00  2.0452844161532010e-03 5.1469007712797471e-02 0.0000000000000000e+00  1.7727198600602664e-03 5.0060940784219667e-02 0.0000000000000000e+00  1.5126643113855885e-03 4.8714866778685105e-02 0.0000000000000000e+00  1.2662569086556654e-03 4.7428618047530090e-02 0.0000000000000000e+00  1.0331308563399861e-03 4.6197969688403499e-02 0.0000000000000000e+00  8.1199576810460849e-04 4.5021133562521791e-02 0.0000000000000000e+00  6.0258449286803748e-04 4.3894563721440516e-02 0.0000000000000000e+00  4.0608191324268734e-04 4.2815643252533085e-02 0.0000000000000000e+00  2.2073501865127264e-04 4.1782943002909897e-02 0.0000000000000000e+00  4.7425186747627088e-05 4.0793271557963993e-02 0.0000000000000000e+00  -1.1400660298572971e-04 3.9845217136286505e-02 0.0000000000000000e+00  -2.6528772451958274e-04 3.8936996289383137e-02 0.0000000000000000e+00  4.3344189409478824e-04 3.7568065240926429e-02 0.0000000000000000e+00  1.2475194773612270e-03 3.7022634619157196e-02 0.0000000000000000e+00  2.0336855755294604e-03 3.6432014472874863e-02 0.0000000000000000e+00  2.7887104919986725e-03 3.5799140383666009e-02 0.0000000000000000e+00  3.5110145802251073e-03 3.5126196089700440e-02 0.0000000000000000e+00  4.1978089455181802e-03 3.4416856812143216e-02 0.0000000000000000e+00  4.8480090534872861e-03 3.3673051400770024e-02 0.0000000000000000e+00  5.4591729436260540e-03 3.2898525322554800e-02 0.0000000000000000e+00  6.0301295692822606e-03 3.2096342317359000e-02 0.0000000000000000e+00  6.5602977328966181e-03 3.1269426386934945e-02 0.0000000000000000e+00  7.0480432805602273e-03 3.0421210321369900e-02 0.0000000000000000e+00  7.4927067992090236e-03 2.9555633414872304e-02 0.0000000000000000e+00  7.8938650872874567e-03 2.8675451133999677e-02 0.0000000000000000e+00  8.2507893447850908e-03 2.7784804704632730e-02 0.0000000000000000e+00  8.5643370352596337e-03 2.6885713376483118e-02 0.0000000000000000e+00  8.8338522467030899e-03 2.5982415213619606e-02 0.0000000000000000e+00  9.0598531855377411e-03 2.5078227297810268e-02 0.0000000000000000e+00  9.2430452439523202e-03 2.4175733883918710e-02 0.0000000000000000e+00  9.3840323071019797e-03 2.3277710580566657e-02 0.0000000000000000e+00  9.4833367206605280e-03 2.2387831093901432e-02 0.0000000000000000e+00  9.5422793793112880e-03 2.1508141877276461e-02 0.0000000000000000e+00  9.5617223980035953e-03 2.0641662386735503e-02 0.0000000000000000e+00  9.5427943604478958e-03 1.9790837666279617e-02 0.0000000000000000e+00  9.4873108286723466e-03 1.8957045769895198e-02 0.0000000000000000e+00  9.3962206621241735e-03 1.8143029577592115e-02 0.0000000000000000e+00  9.2709845717517565e-03 1.7350579353666289e-02 0.0000000000000000e+00  9.1132755325492674e-03 1.6581570687445049e-02 0.0000000000000000e+00  8.9247353438528017e-03 1.5837024662157743e-02 0.0000000000000000e+00  8.7066942730535009e-03 1.5119464058708140e-02 0.0000000000000000e+00  8.4606106940531712e-03 1.4429532443993724e-02 0.0000000000000000e+00  8.1883951811733899e-03 1.3768466005533497e-02 0.0000000000000000e+00  7.8914203789677822e-03 1.3137188567513312e-02 0.0000000000000000e+00  7.5714522323982996e-03 1.2536397673750173e-02 0.0000000000000000e+00  7.2297957108578715e-03 1.1967463372758213e-02 0.0000000000000000e+00  6.8681849178168011e-03 1.1430796952087353e-02 0.0000000000000000e+00  6.4880934979439555e-03 1.0927361473675812e-02 0.0000000000000000e+00  6.0907766239921340e-03 1.0456826390863354e-02 0.0000000000000000e+00  5.6779501714969531e-03 1.0020370745528957e-02 0.0000000000000000e+00  5.2507258974942052e-03 9.6180868240436194e-03 0.0000000000000000e+00  4.8108072361040342e-03 9.2498928876306938e-03 0.0000000000000000e+00  4.3592727671822856e-03 8.9167163722789714e-03 0.0000000000000000e+00  3.8973318041236474e-03 8.6191081820795514e-03 0.0000000000000000e+00  3.4264943689514037e-03 8.3559941943672639e-03 0.0000000000000000e+00  2.9477313882802815e-03 8.1281904322158625e-03 0.0000000000000000e+00  2.4623350820560936e-03 7.9356067648773884e-03 0.0000000000000000e+00  1.9715783400279696e-03 7.7784200684355336e-03 0.0000000000000000e+00  1.4763637865125067e-03 7.6562204104337348e-03 0.0000000000000000e+00  9.7825862641062874e-04 7.5698218645791106e-03 0.0000000000000000e+00  4.7788899323934460e-04 7.5191933017498625e-03 0.0000000000000000e+00  -2.3241844942037984e-05 7.5036552683969086e-03 0.0000000000000000e+00  -5.2424228419369881e-04 7.5235165164145657e-03 0.0000000000000000e+00  -1.0240718213717643e-03 7.5792225982797513e-03 0.0000000000000000e+00  -1.5213708833881059e-03 7.6704915280997226e-03 0.0000000000000000e+00  -2.0152006775316107e-03 7.7969446705953129e-03 0.0000000000000000e+00  -2.5043268198834431e-03 7.9585252689409643e-03 0.0000000000000000e+00  -2.9878382337156458e-03 8.1554348098841541e-03 0.0000000000000000e+00  -3.4642793030753142e-03 8.3873957509307956e-03 0.0000000000000000e+00  -3.9326726633890745e-03 8.6547199645627907e-03 0.0000000000000000e+00  -4.3916598378087642e-03 8.9568379859905883e-03 0.0000000000000000e+00  -4.8399520636777417e-03 9.2940318104041634e-03 0.0000000000000000e+00  -5.2765697725777197e-03 9.6652069097899248e-03 0.0000000000000000e+00  -5.6997603265399391e-03 1.0071000097241677e-02 0.0000000000000000e+00  -6.1086092154176942e-03 1.0510693659834067e-02 0.0000000000000000e+00  -6.5014791059481020e-03 1.0983962568390442e-02 0.0000000000000000e+00  -6.8769183376243470e-03 1.1490387761739029e-02 0.0000000000000000e+00  -7.2336191224455192e-03 1.2029494833854239e-02 0.0000000000000000e+00  -7.5698869737211528e-03 1.2600465192866273e-02 0.0000000000000000e+00  -7.8846904830899515e-03 1.3202324644294222e-02 0.0000000000000000e+00  -8.1757702903930557e-03 1.3834893643840943e-02 0.0000000000000000e+00  -8.4423416695197200e-03 1.4496775895381189e-02 0.0000000000000000e+00  -8.6823995251900082e-03 1.5186823733542925e-02 0.0000000000000000e+00  -8.8943468130918309e-03 1.5904738266621116e-02 0.0000000000000000e+00  -9.0767600083845826e-03 1.6648971364641427e-02 0.0000000000000000e+00  -9.2281832933708025e-03 1.7417089383824302e-02 0.0000000000000000e+00  -9.3472590228450940e-03 1.8208190030542328e-02 0.0000000000000000e+00  -9.4318447047026088e-03 1.9020285525214276e-02 0.0000000000000000e+00  -9.4815935384459198e-0