<?xml version="1.0"?>
<VTKFile type="UnstructuredGrid"  version="0.1"  >
<UnstructuredGrid>
<Piece  NumberOfPoints="16275" NumberOfCells="32468">
<Points>
<DataArray  type="Float64"  NumberOfComponents="3"  format="ascii">-0.5 0.5 0  0.5 0.5 0  0.5 -0.5 0  -0.5 -0.5 0  -1 1 0  1 1 0  1 -1 0  -1 -1 0  -0.4900000000000277 0.5 0  -0.4800000000000555 0.5 0  -0.4700000000000832 0.5 0  -0.4600000000001109 0.5 0  -0.4500000000001387 0.5 0  -0.4400000000001664 0.5 0  -0.4300000000001942 0.5 0  -0.4200000000002219 0.5 0  -0.4100000000002497 0.5 0  -0.4000000000002774 0.5 0  -0.3900000000003052 0.5 0  -0.3800000000003328 0.5 0  -0.3700000000003606 0.5 0  -0.3600000000003883 0.5 0  -0.3500000000004161 0.5 0  -0.3400000000004438 0.5 0  -0.3300000000004716 0.5 0  -0.3200000000004993 0.5 0  -0.3100000000005271 0.5 0  -0.3000000000005548 0.5 0  -0.2900000000005825 0.5 0  -0.2800000000006103 0.5 0  -0.2700000000006381 0.5 0  -0.2600000000006658 0.5 0  -0.2500000000006935 0.5 0  -0.2400000000007212 0.5 0  -0.230000000000749 0.5 0  -0.2200000000007767 0.5 0  -0.2100000000008044 0.5 0  -0.2000000000008322 0.5 0  -0.19000000000086 0.5 0  -0.1800000000008877 0.5 0  -0.1700000000009154 0.5 0  -0.1600000000009431 0.5 0  -0.1500000000009709 0.5 0  -0.1400000000009986 0.5 0  -0.1300000000010264 0.5 0  -0.1200000000010541 0.5 0  -0.1100000000010818 0.5 0  -0.1000000000011096 0.5 0  -0.09000000000113734 0.5 0  -0.08000000000116503 0.5 0  -0.07000000000119283 0.5 0  -0.06000000000122058 0.5 0  -0.05000000000124827 0.5 0  -0.04000000000127607 0.5 0  -0.03000000000130376 0.5 0  -0.02000000000133151 0.5 0  -0.01000000000135925 0.5 0  -1.376121439022882e-12 0.5 0  0.009999999998640763 0.5 0  0.01999999999866864 0.5 0  0.02999999999869629 0.5 0  0.03999999999872406 0.5 0  0.04999999999875182 0.5 0  0.05999999999877947 0.5 0  0.06999999999880724 0.5 0  0.079999999998835 0.5 0  0.08999999999886266 0.5 0  0.09999999999889042 0.5 0  0.1099999999989182 0.5 0  0.1199999999989459 0.5 0  0.1299999999989737 0.5 0  0.1399999999990014 0.5 0  0.1499999999990291 0.5 0  0.1599999999990568 0.5 0  0.1699999999990847 0.5 0  0.1799999999991124 0.5 0  0.1899999999991401 0.5 0  0.1999999999991678 0.5 0  0.2099999999991955 0.5 0  0.2199999999992234 0.5 0  0.2299999999992511 0.5 0  0.2399999999992788 0.5 0  0.2499999999993066 0.5 0  0.2599999999993342 0.5 0  0.269999999999362 0.5 0  0.2799999999993897 0.5 0  0.2899999999994175 0.5 0  0.2999999999994452 0.5 0  0.3099999999994729 0.5 0  0.3199999999995007 0.5 0  0.3299999999995284 0.5 0  0.3399999999995562 0.5 0  0.3499999999995839 0.5 0  0.3599999999996116 0.5 0  0.3699999999996393 0.5 0  0.379999999999667 0.5 0  0.3899999999996949 0.5 0  0.3999999999997226 0.5 0  0.4099999999997503 0.5 0  0.419999999999778 0.5 0  0.4299999999998058 0.5 0  0.4399999999998336 0.5 0  0.4499999999998613 0.5 0  0.4599999999998891 0.5 0  0.4699999999999167 0.5 0  0.4799999999999445 0.5 0  0.4899999999999722 0.5 0  0.5 0.4900000000000277 0  0.5 0.4800000000000555 0  0.5 0.4700000000000832 0  0.5 0.4600000000001109 0  0.5 0.4500000000001387 0  0.5 0.4400000000001664 0  0.5 0.4300000000001942 0  0.5 0.4200000000002219 0  0.5 0.4100000000002497 0  0.5 0.4000000000002774 0  0.5 0.3900000000003052 0  0.5 0.3800000000003328 0  0.5 0.3700000000003606 0  0.5 0.3600000000003883 0  0.5 0.3500000000004161 0  0.5 0.3400000000004438 0  0.5 0.3300000000004716 0  0.5 0.3200000000004993 0  0.5 0.3100000000005271 0  0.5 0.3000000000005548 0  0.5 0.2900000000005825 0  0.5 0.2800000000006103 0  0.5 0.2700000000006381 0  0.5 0.2600000000006658 0  0.5 0.2500000000006935 0  0.5 0.2400000000007212 0  0.5 0.230000000000749 0  0.5 0.2200000000007767 0  0.5 0.2100000000008044 0  0.5 0.2000000000008322 0  0.5 0.19000000000086 0  0.5 0.1800000000008877 0  0.5 0.1700000000009154 0  0.5 0.1600000000009431 0  0.5 0.1500000000009709 0  0.5 0.1400000000009986 0  0.5 0.1300000000010264 0  0.5 0.1200000000010541 0  0.5 0.1100000000010818 0  0.5 0.1000000000011096 0  0.5 0.09000000000113734 0  0.5 0.08000000000116503 0  0.5 0.07000000000119283 0  0.5 0.06000000000122058 0  0.5 0.05000000000124827 0  0.5 0.04000000000127607 0  0.5 0.03000000000130376 0  0.5 0.02000000000133151 0  0.5 0.01000000000135925 0  0.5 1.376121439022882e-12 0  0.5 -0.009999999998640763 0  0.5 -0.01999999999866864 0  0.5 -0.02999999999869629 0  0.5 -0.03999999999872406 0  0.5 -0.04999999999875182 0  0.5 -0.05999999999877947 0  0.5 -0.06999999999880724 0  0.5 -0.079999999998835 0  0.5 -0.08999999999886266 0  0.5 -0.09999999999889042 0  0.5 -0.1099999999989182 0  0.5 -0.1199999999989459 0  0.5 -0.1299999999989737 0  0.5 -0.1399999999990014 0  0.5 -0.1499999999990291 0  0.5 -0.1599999999990568 0  0.5 -0.1699999999990847 0  0.5 -0.1799999999991124 0  0.5 -0.1899999999991401 0  0.5 -0.1999999999991678 0  0.5 -0.2099999999991955 0  0.5 -0.2199999999992234 0  0.5 -0.2299999999992511 0  0.5 -0.2399999999992788 0  0.5 -0.2499999999993066 0  0.5 -0.2599999999993342 0  0.5 -0.269999999999362 0  0.5 -0.2799999999993897 0  0.5 -0.2899999999994175 0  0.5 -0.2999999999994452 0  0.5 -0.3099999999994729 0  0.5 -0.3199999999995007 0  0.5 -0.3299999999995284 0  0.5 -0.3399999999995562 0  0.5 -0.3499999999995839 0  0.5 -0.3599999999996116 0  0.5 -0.3699999999996393 0  0.5 -0.379999999999667 0  0.5 -0.3899999999996949 0  0.5 -0.3999999999997226 0  0.5 -0.4099999999997503 0  0.5 -0.419999999999778 0  0.5 -0.4299999999998058 0  0.5 -0.4399999999998336 0  0.5 -0.4499999999998613 0  0.5 -0.4599999999998891 0  0.5 -0.4699999999999167 0  0.5 -0.4799999999999445 0  0.5 -0.4899999999999722 0  0.4900000000000277 -0.5 0  0.4800000000000555 -0.5 0  0.4700000000000832 -0.5 0  0.4600000000001109 -0.5 0  0.4500000000001387 -0.5 0  0.4400000000001664 -0.5 0  0.4300000000001942 -0.5 0  0.4200000000002219 -0.5 0  0.4100000000002497 -0.5 0  0.4000000000002774 -0.5 0  0.3900000000003052 -0.5 0  0.3800000000003328 -0.5 0  0.3700000000003606 -0.5 0  0.3600000000003883 -0.5 0  0.3500000000004161 -0.5 0  0.3400000000004438 -0.5 0  0.3300000000004716 -0.5 0  0.3200000000004993 -0.5 0  0.3100000000005271 -0.5 0  0.3000000000005548 -0.5 0  0.2900000000005825 -0.5 0  0.2800000000006103 -0.5 0  0.2700000000006381 -0.5 0  0.2600000000006658 -0.5 0  0.2500000000006935 -0.5 0  0.2400000000007212 -0.5 0  0.230000000000749 -0.5 0  0.2200000000007767 -0.5 0  0.2100000000008044 -0.5 0  0.2000000000008322 -0.5 0  0.19000000000086 -0.5 0  0.1800000000008877 -0.5 0  0.1700000000009154 -0.5 0  0.1600000000009431 -0.5 0  0.1500000000009709 -0.5 0  0.1400000000009986 -0.5 0  0.1300000000010264 -0.5 0  0.1200000000010541 -0.5 0  0.1100000000010818 -0.5 0  0.1000000000011096 -0.5 0  0.09000000000113734 -0.5 0  0.08000000000116503 -0.5 0  0.07000000000119283 -0.5 0  0.06000000000122058 -0.5 0  0.05000000000124827 -0.5 0  0.04000000000127607 -0.5 0  0.03000000000130376 -0.5 0  0.02000000000133151 -0.5 0  0.01000000000135925 -0.5 0  1.376121439022882e-12 -0.5 0  -0.009999999998640763 -0.5 0  -0.01999999999866864 -0.5 0  -0.02999999999869629 -0.5 0  -0.03999999999872406 -0.5 0  -0.04999999999875182 -0.5 0  -0.05999999999877947 -0.5 0  -0.06999999999880724 -0.5 0  -0.079999999998835 -0.5 0  -0.08999999999886266 -0.5 0  -0.09999999999889042 -0.5 0  -0.1099999999989182 -0.5 0  -0.1199999999989459 -0.5 0  -0.1299999999989737 -0.5 0  -0.1399999999990014 -0.5 0  -0.1499999999990291 -0.5 0  -0.1599999999990568 -0.5 0  -0.1699999999990847 -0.5 0  -0.1799999999991124 -0.5 0  -0.1899999999991401 -0.5 0  -0.1999999999991678 -0.5 0  -0.2099999999991955 -0.5 0  -0.2199999999992234 -0.5 0  -0.2299999999992511 -0.5 0  -0.2399999999992788 -0.5 0  -0.2499999999993066 -0.5 0  -0.2599999999993342 -0.5 0  -0.269999999999362 -0.5 0  -0.2799999999993897 -0.5 0  -0.2899999999994175 -0.5 0  -0.2999999999994452 -0.5 0  -0.3099999999994729 -0.5 0  -0.3199999999995007 -0.5 0  -0.3299999999995284 -0.5 0  -0.3399999999995562 -0.5 0  -0.3499999999995839 -0.5 0  -0.3599999999996116 -0.5 0  -0.3699999999996393 -0.5 0  -0.379999999999667 -0.5 0  -0.3899999999996949 -0.5 0  -0.3999999999997226 -0.5 0  -0.4099999999997503 -0.5 0  -0.419999999999778 -0.5 0  -0.4299999999998058 -0.5 0  -0.4399999999998336 -0.5 0  -0.4499999999998613 -0.5 0  -0.4599999999998891 -0.5 0  -0.4699999999999167 -0.5 0  -0.4799999999999445 -0.5 0  -0.4899999999999722 -0.5 0  -0.5 -0.4900000000000277 0  -0.5 -0.4800000000000555 0  -0.5 -0.4700000000000832 0  -0.5 -0.4600000000001109 0  -0.5 -0.4500000000001387 0  -0.5 -0.4400000000001664 0  -0.5 -0.4300000000001942 0  -0.5 -0.4200000000002219 0  -0.5 -0.4100000000002497 0  -0.5 -0.4000000000002774 0  -0.5 -0.3900000000003052 0  -0.5 -0.3800000000003328 0  -0.5 -0.3700000000003606 0  -0.5 -0.3600000000003883 0  -0.5 -0.3500000000004161 0  -0.5 -0.3400000000004438 0  -0.5 -0.3300000000004716 0  -0.5 -0.3200000000004993 0  -0.5 -0.3100000000005271 0  -0.5 -0.3000000000005548 0  -0.5 -0.2900000000005825 0  -0.5 -0.2800000000006103 0  -0.5 -0.2700000000006381 0  -0.5 -0.2600000000006658 0  -0.5 -0.2500000000006935 0  -0.5 -0.2400000000007212 0  -0.5 -0.230000000000749 0  -0.5 -0.2200000000007767 0  -0.5 -0.2100000000008044 0  -0.5 -0.2000000000008322 0  -0.5 -0.19000000000086 0  -0.5 -0.1800000000008877 0  -0.5 -0.1700000000009154 0  -0.5 -0.1600000000009431 0  -0.5 -0.1500000000009709 0  -0.5 -0.1400000000009986 0  -0.5 -0.1300000000010264 0  -0.5 -0.1200000000010541 0  -0.5 -0.1100000000010818 0  -0.5 -0.1000000000011096 0  -0.5 -0.09000000000113734 0  -0.5 -0.08000000000116503 0  -0.5 -0.07000000000119283 0  -0.5 -0.06000000000122058 0  -0.5 -0.05000000000124827 0  -0.5 -0.04000000000127607 0  -0.5 -0.03000000000130376 0  -0.5 -0.02000000000133151 0  -0.5 -0.01000000000135925 0  -0.5 -1.376121439022882e-12 0  -0.5 0.009999999998640763 0  -0.5 0.01999999999866864 0  -0.5 0.02999999999869629 0  -0.5 0.03999999999872406 0  -0.5 0.04999999999875182 0  -0.5 0.05999999999877947 0  -0.5 0.06999999999880724 0  -0.5 0.079999999998835 0  -0.5 0.08999999999886266 0  -0.5 0.09999999999889042
[...]
<PointData  Vectors="f_27-0"> 
<DataArray  type="Float64"  Name="f_27-0"  NumberOfComponents="3" format="ascii">1.2399651133992527e-03 4.6957581688282866e-02 0.0000000000000000e+00  -1.7226399072808249e-03 4.6775240656483807e-02 0.0000000000000000e+00  -1.9795263537546225e-04 3.9014139904297439e-02 0.0000000000000000e+00  3.3080731583831358e-04 3.8933747786465231e-02 0.0000000000000000e+00  -1.5416562277217100e-03 6.3172464188428557e-03 0.0000000000000000e+00  1.5066166422526422e-03 6.3189434448941992e-03 0.0000000000000000e+00  -9.1706262291758845e-04 6.1912331170540583e-03 0.0000000000000000e+00  9.1899942170287985e-04 6.1895578420434775e-03 0.0000000000000000e+00  2.4297120771428196e-03 4.6257668363391180e-02 0.0000000000000000e+00  3.5794789911048359e-03 4.5484345815097166e-02 0.0000000000000000e+00  4.6836596610280419e-03 4.4642117207394180e-02 0.0000000000000000e+00  5.7391022486027619e-03 4.3734690259537586e-02 0.0000000000000000e+00  6.7405139706623110e-03 4.2767870736657526e-02 0.0000000000000000e+00  7.6857879108256670e-03 4.1745476866117959e-02 0.0000000000000000e+00  8.5703778271369307e-03 4.0674715745651645e-02 0.0000000000000000e+00  9.3932261092203491e-03 3.9559856355304866e-02 0.0000000000000000e+00  1.0151678732733337e-02 3.8406941853620633e-02 0.0000000000000000e+00  1.0843021835530098e-02 3.7222811123161066e-02 0.0000000000000000e+00  1.1467783873990441e-02 3.6012925360524500e-02 0.0000000000000000e+00  1.2024996511649358e-02 3.4782241776599748e-02 0.0000000000000000e+00  1.2514452957938639e-02 3.3537403648951927e-02 0.0000000000000000e+00  1.2937128457466234e-02 3.2282612992355922e-02 0.0000000000000000e+00  1.3292186344702452e-02 3.1025646549617061e-02 0.0000000000000000e+00  1.3582267666000049e-02 2.9769657678074397e-02 0.0000000000000000e+00  1.3808390596053021e-02 2.8519416737634185e-02 0.0000000000000000e+00  1.3971674666415995e-02 2.7280719660288891e-02 0.0000000000000000e+00  1.4074689677200566e-02 2.6057562405149490e-02 0.0000000000000000e+00  1.4119713037472125e-02 2.4852671779295180e-02 0.0000000000000000e+00  1.4108509579889888e-02 2.3670621798853819e-02 0.0000000000000000e+00  1.4044074515175909e-02 2.2513819460131344e-02 0.0000000000000000e+00  1.3928873911868185e-02 2.1385077103214259e-02 0.0000000000000000e+00  1.3765074615753974e-02 2.0288818247143951e-02 0.0000000000000000e+00  1.3555663685790715e-02 1.9225538187256277e-02 0.0000000000000000e+00  1.3303600780072918e-02 1.8197619152234008e-02 0.0000000000000000e+00  1.3011024478660170e-02 1.7206700064062580e-02 0.0000000000000000e+00  1.2680672000876482e-02 1.6255159731273252e-02 0.0000000000000000e+00  1.2315416067949005e-02 1.5342393533738029e-02 0.0000000000000000e+00  1.1917676272050500e-02 1.4470472547510351e-02 0.0000000000000000e+00  1.1489603204206484e-02 1.3640233901266261e-02 0.0000000000000000e+00  1.1033689136151898e-02 1.2852263373905213e-02 0.0000000000000000e+00  1.0552205430512286e-02 1.2107355143031493e-02 0.0000000000000000e+00  1.0047412503572328e-02 1.1404972136720527e-02 0.0000000000000000e+00  9.5210596758910984e-03 1.0745662204165231e-02 0.0000000000000000e+00  8.9751758944728970e-03 1.0129082602886780e-02 0.0000000000000000e+00  8.4118085543957999e-03 9.5562333036635048e-03 0.0000000000000000e+00  7.8323892611741434e-03 9.0262618275334400e-03 0.0000000000000000e+00  7.2387575588360792e-03 8.5389916660785319e-03 0.0000000000000000e+00  6.6323719383197151e-03 8.0951824132595249e-03 0.0000000000000000e+00  6.0148403463389493e-03 7.6937612012975953e-03 0.0000000000000000e+00  5.3875475753462259e-03 7.3340319690048230e-03 0.0000000000000000e+00  4.7514671907333559e-03 7.0175448819964521e-03 0.0000000000000000e+00  4.1080519888537122e-03 6.7427958329789421e-03 0.0000000000000000e+00  3.4583970523158407e-03 6.5098522269751062e-03 0.0000000000000000e+00  2.8034404630978482e-03 6.3183057329672240e-03 0.0000000000000000e+00  2.1447924267614083e-03 6.1687425373954264e-03 0.0000000000000000e+00  1.4828842623772324e-03 6.0601681130180735e-03 0.0000000000000000e+00  8.1929024579017876e-04 5.9924085124576738e-03 0.0000000000000000e+00  1.5441524939090295e-04 5.9662983850392176e-03 0.0000000000000000e+00  -5.1049023038756542e-04 5.9813751172358839e-03 0.0000000000000000e+00  -1.1742931646106960e-03 6.0368286930954770e-03 0.0000000000000000e+00  -1.8363776210371550e-03 6.1332475662580219e-03 0.0000000000000000e+00  -2.4954400209342632e-03 6.2711788357566979e-03 0.0000000000000000e+00  -3.1507257839279430e-03 6.4507858820121505e-03 0.0000000000000000e+00  -3.8009015372399762e-03 6.6716495403888743e-03 0.0000000000000000e+00  -4.4451555979436634e-03 6.9342013949746789e-03 0.0000000000000000e+00  -5.0821627306698140e-03 7.2382064825627004e-03 0.0000000000000000e+00  -5.7109907038248335e-03 7.5842813411322188e-03 0.0000000000000000e+00  -6.3302904487027665e-03 7.9720260212343616e-03 0.0000000000000000e+00  -6.9385106427740590e-03 8.4028563083362196e-03 0.0000000000000000e+00  -7.5348014067344177e-03 8.8756631880726172e-03 0.0000000000000000e+00  -8.1170319584126412e-03 9.3910642735923495e-03 0.0000000000000000e+00  -8.6840305306631824e-03 9.9492212812470789e-03 0.0000000000000000e+00  -9.2341638592821317e-03 1.0549919407322028e-02 0.0000000000000000e+00  -9.7653056525766422e-03 1.1193264591242960e-02 0.0000000000000000e+00  -1.0276282283762520e-02 1.1879647211243865e-02 0.0000000000000000e+00  -1.0764112261549762e-02 1.2608862277889732e-02 0.0000000000000000e+00  -1.1227986301814539e-02 1.3380217502020614e-02 0.0000000000000000e+00  -1.1664558385066920e-02 1.4193572485359853e-02 0.0000000000000000e+00  -1.2072326309668355e-02 1.5049021581487344e-02 0.0000000000000000e+00  -1.2448946484058735e-02 1.5944068114527633e-02 0.0000000000000000e+00  -1.2791717946933123e-02 1.6878568913080032e-02 0.0000000000000000e+00  -1.3098547066727298e-02 1.7852581343210862e-02 0.0000000000000000e+00  -1.3366204442207841e-02 1.8863844804686850e-02 0.0000000000000000e+00  -1.3593151903326174e-02 1.9910899192025721e-02 0.0000000000000000e+00  -1.3775394335792624e-02 2.0992765487473409e-02 0.0000000000000000e+00  -1.3911513334812595e-02 2.2105201663413832e-02 0.0000000000000000e+00  -1.3998390991281555e-02 2.3247920345184032e-02 0.0000000000000000e+00  -1.4033316188518710e-02 2.4417559874265540e-02 0.0000000000000000e+00  -1.4014131998806965e-02 2.5611051196740165e-02 0.0000000000000000e+00  -1.3938094237756906e-02 2.6824814650828175e-02 0.0000000000000000e+00  -1.3803495909072577e-02 2.8055613065018029e-02 0.0000000000000000e+00  -1.3607207210048176e-02 2.9300154854536176e-02 0.0000000000000000e+00  -1.3348699874498486e-02 3.0552039921370500e-02 0.0000000000000000e+00  -1.3025722568748200e-02 3.1808250349997035e-02 0.0000000000000000e+00  -1.2636588305280963e-02 3.3064255878397862e-02 0.0000000000000000e+00  -1.2180698533085378e-02 3.4313783485957816e-02 0.0000000000000000e+00  -1.1657549698770284e-02 3.5551595276753799e-02 0.0000000000000000e+00  -1.1066900211747539e-02 3.6771992486933976e-02 0.0000000000000000e+00  -1.0409036484572582e-02 3.7969621579633808e-02 0.0000000000000000e+00  -9.6835493088020912e-03 3.9139467889934089e-02 0.0000000000000000e+00  -8.8928822740539405e-03 4.0274252087181973e-02 0.0000000000000000e+00  -8.0383224998818517e-03 4.1368509480046271e-02 0.0000000000000000e+00  -7.1212776657953664e-03 4.2417372820901633e-02 0.0000000000000000e+00  -6.1462002634022237e-03 4.3413028142707394e-02 0.0000000000000000e+00  -5.1141769948342217e-03 4.4352263365373672e-02 0.0000000000000000e+00  -4.0300252671159730e-03 4.5228703923519215e-02 0.0000000000000000e+00  -2.8981385086675462e-03 4.6037715216329891e-02 0.0000000000000000e+00  -2.0054189167013699e-03 4.8001354565514319e-02 0.0000000000000000e+00  -2.3087334639213569e-03 4.9288852215797763e-02 0.0000000000000000e+00  -2.6323170164698744e-03 5.0644160084282096e-02 0.0000000000000000e+00  -2.9786329125174103e-03 5.2069131820142403e-02 0.0000000000000000e+00  -3.3481023887379485e-03 5.3570591757751529e-02 0.0000000000000000e+00  -3.7447993908917660e-03 5.5151774422987708e-02 0.0000000000000000e+00  -4.1653417765369159e-03 5.6818670831704318e-02 0.0000000000000000e+00  -4.6179708306790098e-03 5.8578010576620647e-02 0.0000000000000000e+00  -5.1033177070567582e-03 6.0434370295903955e-02 0.0000000000000000e+00  -5.6200516789371548e-03 6.2396484495212276e-02 0.0000000000000000e+00  -6.1736361002628585e-03 6.4471097359732374e-02 0.0000000000000000e+00  -6.7689701332038273e-03 6.6664677554561846e-02 0.0000000000000000e+00  -7.4088468839741085e-03 6.8987791030553469e-02 0.0000000000000000e+00  -8.0996431255812469e-03 7.1444411797394552e-02 0.0000000000000000e+00  -8.8419849091495133e-03 7.4047503661855849e-02 0.0000000000000000e+00  -9.6439858115990439e-03 7.6804746859657380e-02 0.0000000000000000e+00  -1.0514918099355312e-02 7.9720178372801834e-02 0.0000000000000000e+00  -1.1454561383712140e-02 8.2808110221494036e-02 0.0000000000000000e+00  -1.2471167657421688e-02 8.6069674798705531e-02 0.0000000000000000e+00  -1.3572725007004401e-02 8.9505413270753217e-02 0.0000000000000000e+00  -1.4753129865579171e-02 9.3120127606726277e-02 0.0000000000000000e+00  -1.6011060147221690e-02 9.6901594393534254e-02 0.0000000000000000e+00  -1.7323053353858805e-02 1.0083617361980149e-01 0.0000000000000000e+00  -1.8651725559450667e-02 1.0489929124991719e-01 0.0000000000000000e+00  -1.9918834503754181e-02 1.0905229396652691e-01 0.0000000000000000e+00  -2.1015406571320422e-02 1.1322788387900551e-01 0.0000000000000000e+00  -2.1748928752530816e-02 1.1734932255312273e-01 0.0000000000000000e+00  -2.1873662576206734e-02 1.2130953578904304e-01 0.0000000000000000e+00  -2.0994527021027547e-02 1.2496508372802177e-01 0.0000000000000000e+00  -1.8671083851760601e-02 1.2815955257233849e-01 0.0000000000000000e+00  -1.4333771696645429e-02 1.3070839797798300e-01 0.0000000000000000e+00  -7.4224785074166596e-03 1.3243455013895533e-01 0.0000000000000000e+00  2.4535240353307699e-03 1.3313089354542018e-01 0.0000000000000000e+00  1.5353704471102226e-02 1.3273251638712924e-01 0.0000000000000000e+00  3.0610621261954900e-02 1.3108886053671132e-01 0.0000000000000000e+00  4.6667370411863737e-02 1.2821805251390506e-01 0.0000000000000000e+00  6.1094282987389392e-02 1.2390338274117957e-01 0.0000000000000000e+00  7.0606669354241355e-02 1.1814535835229292e-01 0.0000000000000000e+00  7.1656648821404295e-02 1.1057780239952901e-01 0.0000000000000000e+00  6.0664906460657676e-02 1.0200001939396855e-01 0.0000000000000000e+00  3.5516729519473093e-02 9.3743355625965141e-02 0.0000000000000000e+00  -1.0327160547364456e-03 8.8561906360099252e-02 0.0000000000000000e+00  -3.9316754003920699e-02 9.0912955732864342e-02 0.0000000000000000e+00  -6.5019938858679446e-02 1.0196194852111105e-01 0.0000000000000000e+00  -7.0614460459082359e-02 1.1971932565829105e-01 0.0000000000000000e+00  -6.1644681225343965e-02 1.3820701098477445e-01 0.0000000000000000e+00  -4.9023111041149869e-02 1.5222115105062387e-01 0.0000000000000000e+00  -3.8000058924219773e-02 1.6170044306754039e-01 0.0000000000000000e+00  -2.8901089251142559e-02 1.6745950566988854e-01 0.0000000000000000e+00  -2.1331660255436938e-02 1.7055175941454259e-01 0.0000000000000000e+00  -1.4962116887981939e-02 1.7165780574460979e-01 0.0000000000000000e+00  -9.5533891422303983e-03 1.7123973826646949e-01 0.0000000000000000e+00  -4.9725049714675201e-03 1.6964132683558167e-01 0.0000000000000000e+00  -1.0891738963717500e-03 1.6710186588165207e-01 0.0000000000000000e+00  2.1411694531125406e-03 1.6382199110831977e-01 0.0000000000000000e+00  4.8103311549691653e-03 1.5996955535156973e-01 0.0000000000000000e+00  6.9610588471359777e-03 1.5569844324992912e-01 0.0000000000000000e+00  8.6495470951853323e-03 1.5113050488857771e-01 0.0000000000000000e+00  9.9364206218708270e-03 1.4636442010273162e-01 0.0000000000000000e+00  1.0871261752569064e-02 1.4149059329818953e-01 0.0000000000000000e+00  1.1510631100377471e-02 1.3657279654005278e-01 0.0000000000000000e+00  1.1894758409051220e-02 1.3167548440664567e-01 0.0000000000000000e+00  1.2069151092658232e-02 1.2684375937786946e-01 0.0000000000000000e+00  1.2070532815996387e-02 1.2211198172912996e-01 0.0000000000000000e+00  1.1934133609710407e-02 1.1750884733893585e-01 0.0000000000000000e+00  1.1690871257723884e-02 1.1305072562340178e-01 0.0000000000000000e+00  1.1365178512382704e-02 1.0875844314224281e-01 0.0000000000000000e+00  1.0981468215981687e-02 1.0462725321894964e-01 0.0000000000000000e+00  1.0552124373833545e-02 1.0067705056423738e-01 0.0000000000000000e+00  1.0094392167814966e-02 9.6895781790555510e-02 0.0000000000000000e+00  9.6159582291519222e-03 9.3289187078690092e-02 0.0000000000000000e+00  9.1235656083413913e-03 8.9853674768336736e-02 0.0000000000000000e+00  8.6266932321823319e-03 8.6586237009082065e-02 0.0000000000000000e+00  8.1335002986035933e-03 8.3476268245619156e-02 0.0000000000000000e+00  7.6464949114672526e-03 8.0517405967140340e-02 0.0000000000000000e+00  7.1656623811938401e-03 7.7709461314954584e-02 0.0000000000000000e+00  6.6986954832442451e-03 7.5037018293394084e-02 0.0000000000000000e+00  6.2390818404520132e-03 7.2499583372966955e-02 0.0000000000000000e+00  5.7948512472003741e-03 7.0086299612875949e-02 0.0000000000000000e+00  5.3652960892056518e-03 6.7792983255142880e-02 0.0000000000000000e+00  4.9496307859497966e-03 6.5612519657799434e-02 0.0000000000000000e+00  4.5488597559203486e-03 6.3537572703560197e-02 0.0000000000000000e+00  4.1634794398478408e-03 6.1564532524952337e-02 0.0000000000000000e+00  3.7939662959751083e-03 5.9684628172544239e-02 0.0000000000000000e+00  3.4381880022181033e-03 5.7895843777169866e-02 0.0000000000000000e+00  3.0983118891417271e-03 5.6190239880120729e-02 0.0000000000000000e+00  2.7744029904474840e-03 5.4565229162219328e-02 0.0000000000000000e+00  2.4643603974014356e-03 5.3014979207025491e-02 0.0000000000000000e+00  2.1688316938048547e-03 5.1536590173322357e-02 0.0000000000000000e+00  1.8869011369851800e-03 5.0124905638430056e-02 0.0000000000000000e+00  1.6198609476277940e-03 4.8777460108513110e-02 0.0000000000000000e+00  1.3673687651959297e-03 4.7489623082999394e-02 0.0000000000000000e+00  1.1279031503307216e-03 4.6259484809498791e-02 0.0000000000000000e+00  9.0096014026399618e-04 4.5083134399800939e-02 0.0000000000000000e+00  6.8764470972808886e-04 4.3957576887409373e-02 0.0000000000000000e+00  4.8604714080247680e-04 4.2881118544510717e-02 0.0000000000000000e+00  2.9727456064093953e-04 4.1850208189814109e-02 0.0000000000000000e+00  1.2134086151399228e-04 4.0863342716830002e-02 0.0000000000000000e+00  -4.3565175677996490e-05 3.9918641619194062e-02 0.0000000000000000e+00  6.7468500912285195e-04 3.8492770558736032e-02 0.0000000000000000e+00  1.5197390340516643e-03 3.7922374255630900e-02 0.0000000000000000e+00  2.3352965519943150e-03 3.7304582497392359e-02 0.0000000000000000e+00  3.1179579212770969e-03 3.6642575494894976e-02 0.0000000000000000e+00  3.8660550713119535e-03 3.5938723867902492e-02 0.0000000000000000e+00  4.5766215969130723e-03 3.5197013411600121e-02 0.0000000000000000e+00  5.2485257293286500e-03 3.4419528858697618e-02 0.0000000000000000e+00  5.8791992564810177e-03 3.3610288016277412e-02 0.0000000000000000e+00  6.4674159729492375e-03 3.2772481178427515e-02 0.0000000000000000e+00  7.0126030492177584e-03 3.1909162900743124e-02 0.0000000000000000e+00  7.5130702001706805e-03 3.1024091807937134e-02 0.0000000000000000e+00  7.9681494708304136e-03 3.0121534623011779e-02 0.0000000000000000e+00  8.3774409703918674e-03 2.9204348341304753e-02 0.0000000000000000e+00  8.7402258422415273e-03 2.8276860117607244e-02 0.0000000000000000e+00  9.0575271667046112e-03 2.7341165121962042e-02 0.0000000000000000e+00  9.3286988245437803e-03 2.6401791211310335e-02 0.0000000000000000e+00  9.5543560319736980e-03 2.5462219315388852e-02 0.0000000000000000e+00  9.7353082409178029e-03 2.4525129808298077e-02 0.0000000000000000e+00  9.8722573702823835e-03 2.3593384107981018e-02 0.0000000000000000e+00  9.9658367070930304e-03 2.2670822726061177e-02 0.0000000000000000e+00  1.0017492279310413e-02 2.1759561737508520e-02 0.0000000000000000e+00  1.0028189191093941e-02 2.0862722326332527e-02 0.0000000000000000e+00  9.9991696497932006e-03 1.9982812248253212e-02 0.0000000000000000e+00  9.9323895741953543e-03 1.9121186714241688e-02 0.0000000000000000e+00  9.8288874832364453e-03 1.8280702809008051e-02 0.0000000000000000e+00  9.6902337451881346e-03 1.7463154893740840e-02 0.0000000000000000e+00  9.5182162980687740e-03 1.6670422461610844e-02 0.0000000000000000e+00  9.3145786582715367e-03 1.5903464224599134e-02 0.0000000000000000e+00  9.0807615166256829e-03 1.5164888568389462e-02 0.0000000000000000e+00  8.8182895576802388e-03 1.4455278234786463e-02 0.0000000000000000e+00  8.5291775672351952e-03 1.3775841499380805e-02 0.0000000000000000e+00  8.2148738625954874e-03 1.3127505066773369e-02 0.0000000000000000e+00  7.8772016147142156e-03 1.2510918952556113e-02 0.0000000000000000e+00  7.5175386033814540e-03 1.1927408983070960e-02 0.0000000000000000e+00  7.1376846723627263e-03 1.1377330784836473e-02 0.0000000000000000e+00  6.7391576559569901e-03 1.0861645740409827e-02 0.0000000000000000e+00  6.3232339513159862e-03 1.0379967114431798e-02 0.0000000000000000e+00  5.8916759743645759e-03 9.9334055222544283e-03 0.0000000000000000e+00  5.4456357688768275e-03 9.5219964671015723e-03 0.0000000000000000e+00  4.9868732042130954e-03 9.1456339597480035e-03 0.0000000000000000e+00  4.5164858391380574e-03 8.8052845619425307e-03 0.0000000000000000e+00  4.0356917582352334e-03 8.5014673274693107e-03 0.0000000000000000e+00  3.5459872883581893e-03 8.2329821325502726e-03 0.0000000000000000e+00  3.0483436331831537e-03 8.0006456782728830e-03 0.0000000000000000e+00  2.5440600714676598e-03 7.8043357927514703e-03 0.0000000000000000e+00  2.0344341500550156e-03 7.6442120779439196e-03 0.0000000000000000e+00  1.5203662209663314e-03 7.5198231484202224e-03 0.0000000000000000e+00  1.0034656618687387e-03 7.4320362787497624e-03 0.0000000000000000e+00  4.8431864825739906e-04 7.3808332421561543e-03 0.0000000000000000e+00  -3.5587099893610172e-05 7.3654615502019138e-03 0.0000000000000000e+00  -5.5537362262293765e-04 7.3861895102799967e-03 0.0000000000000000e+00  -1.0739825916767471e-03 7.4435008116864026e-03 0.0000000000000000e+00  -1.5900212479613134e-03 7.5371638215181750e-03 0.0000000000000000e+00  -2.1025745762562470e-03 7.6668284048366769e-03 0.0000000000000000e+00  -2.6104189446454866e-03 7.8324077923035054e-03 0.0000000000000000e+00  -3.1126594291675416e-03 8.0340777655967099e-03 0.0000000000000000e+00  -3.6077997011260505e-03 8.2715884092800507e-03 0.0000000000000000e+00  -4.0948701228414918e-03 8.5453458504058874e-03 0.0000000000000000e+00  -4.5724834447415921e-03 8.8548063816480307e-03 0.0000000000000000e+00  -5.0393411933424342e-03 9.2002811318898942e-03 0.0000000000000000e+00  -5.4944505886475809e-03 9.5806478654818228e-03 0.0000000000000000e+00  -5.9360218959207123e-03 9.9966399308658131e-03 0.0000000000000000e+00  -6.3631529985562927e-03 1.0447552648627612e-02 0.0000000000000000e+00  -6.7741450066552298e-03 1.0933085829827991e-02 0.0000000000000000e+00  -7.1674952725532086e-03 1.1452892839025645e-02 0.0000000000000000e+00  -7.5418503978605476e-03 1.2006538425808814e-02 0.0000000000000000e+00  -7.8954303069617236e-03 1.2593212837908952e-02 0.0000000000000000e+00  -8.2272049262373734e-03 1.3211975908737099e-02 0.0000000000000000e+00  -8.5348051992709881e-03 1.3862686338876589e-02 0.0000000000000000e+00  -8.8174261590051092e-03 1.4543962778108953e-02 0.0000000000000000e+00  -9.0729140444230534e-03 1.5254670669810476e-02 0.0000000000000000e+00  -9.2995988264910848e-03 1.5994621802603203e-02 0.0000000000000000e+00  -9.4959911907734097e-03 1.6762219760832850e-02 0.0000000000000000e+00  -9.6605486845552906e-03 1.7554977910257275e-02 0.0000000000000000e+00  -9.7918251716403830e-03 1.8372046687014695e-02 0.0000000000000000e+00  -9.8874952335547533e-03 1.9211405394834492e-02 0.0000000000000000e+00  -9.9471566402039927e-0