<?xml version="1.0"?>
<VTKFile type="UnstructuredGrid"  version="0.1"  >
<UnstructuredGrid>
<Piece  NumberOfPoints="16275" NumberOfCells="32468">
<Points>
<DataArray  type="Float64"  NumberOfComponents="3"  format="ascii">-0.5 0.5 0  0.5 0.5 0  0.5 -0.5 0  -0.5 -0.5 0  -1 1 0  1 1 0  1 -1 0  -1 -1 0  -0.4900000000000277 0.5 0  -0.4800000000000555 0.5 0  -0.4700000000000832 0.5 0  -0.4600000000001109 0.5 0  -0.4500000000001387 0.5 0  -0.4400000000001664 0.5 0  -0.4300000000001942 0.5 0  -0.4200000000002219 0.5 0  -0.4100000000002497 0.5 0  -0.4000000000002774 0.5 0  -0.3900000000003052 0.5 0  -0.3800000000003328 0.5 0  -0.3700000000003606 0.5 0  -0.3600000000003883 0.5 0  -0.3500000000004161 0.5 0  -0.3400000000004438 0.5 0  -0.3300000000004716 0.5 0  -0.3200000000004993 0.5 0  -0.3100000000005271 0.5 0  -0.3000000000005548 0.5 0  -0.2900000000005825 0.5 0  -0.2800000000006103 0.5 0  -0.2700000000006381 0.5 0  -0.2600000000006658 0.5 0  -0.2500000000006935 0.5 0  -0.2400000000007212 0.5 0  -0.230000000000749 0.5 0  -0.2200000000007767 0.5 0  -0.2100000000008044 0.5 0  -0.2000000000008322 0.5 0  -0.19000000000086 0.5 0  -0.1800000000008877 0.5 0  -0.1700000000009154 0.5 0  -0.1600000000009431 0.5 0  -0.1500000000009709 0.5 0  -0.1400000000009986 0.5 0  -0.1300000000010264 0.5 0  -0.1200000000010541 0.5 0  -0.1100000000010818 0.5 0  -0.1000000000011096 0.5 0  -0.09000000000113734 0.5 0  -0.08000000000116503 0.5 0  -0.07000000000119283 0.5 0  -0.06000000000122058 0.5 0  -0.05000000000124827 0.5 0  -0.04000000000127607 0.5 0  -0.03000000000130376 0.5 0  -0.02000000000133151 0.5 0  -0.01000000000135925 0.5 0  -1.376121439022882e-12 0.5 0  0.009999999998640763 0.5 0  0.01999999999866864 0.5 0  0.02999999999869629 0.5 0  0.03999999999872406 0.5 0  0.04999999999875182 0.5 0  0.05999999999877947 0.5 0  0.06999999999880724 0.5 0  0.079999999998835 0.5 0  0.08999999999886266 0.5 0  0.09999999999889042 0.5 0  0.1099999999989182 0.5 0  0.1199999999989459 0.5 0  0.1299999999989737 0.5 0  0.1399999999990014 0.5 0  0.1499999999990291 0.5 0  0.1599999999990568 0.5 0  0.1699999999990847 0.5 0  0.1799999999991124 0.5 0  0.1899999999991401 0.5 0  0.1999999999991678 0.5 0  0.2099999999991955 0.5 0  0.2199999999992234 0.5 0  0.2299999999992511 0.5 0  0.2399999999992788 0.5 0  0.2499999999993066 0.5 0  0.2599999999993342 0.5 0  0.269999999999362 0.5 0  0.2799999999993897 0.5 0  0.2899999999994175 0.5 0  0.2999999999994452 0.5 0  0.3099999999994729 0.5 0  0.3199999999995007 0.5 0  0.3299999999995284 0.5 0  0.3399999999995562 0.5 0  0.3499999999995839 0.5 0  0.3599999999996116 0.5 0  0.3699999999996393 0.5 0  0.379999999999667 0.5 0  0.3899999999996949 0.5 0  0.3999999999997226 0.5 0  0.4099999999997503 0.5 0  0.419999999999778 0.5 0  0.4299999999998058 0.5 0  0.4399999999998336 0.5 0  0.4499999999998613 0.5 0  0.4599999999998891 0.5 0  0.4699999999999167 0.5 0  0.4799999999999445 0.5 0  0.4899999999999722 0.5 0  0.5 0.4900000000000277 0  0.5 0.4800000000000555 0  0.5 0.4700000000000832 0  0.5 0.4600000000001109 0  0.5 0.4500000000001387 0  0.5 0.4400000000001664 0  0.5 0.4300000000001942 0  0.5 0.4200000000002219 0  0.5 0.4100000000002497 0  0.5 0.4000000000002774 0  0.5 0.3900000000003052 0  0.5 0.3800000000003328 0  0.5 0.3700000000003606 0  0.5 0.3600000000003883 0  0.5 0.3500000000004161 0  0.5 0.3400000000004438 0  0.5 0.3300000000004716 0  0.5 0.3200000000004993 0  0.5 0.3100000000005271 0  0.5 0.3000000000005548 0  0.5 0.2900000000005825 0  0.5 0.2800000000006103 0  0.5 0.2700000000006381 0  0.5 0.2600000000006658 0  0.5 0.2500000000006935 0  0.5 0.2400000000007212 0  0.5 0.230000000000749 0  0.5 0.2200000000007767 0  0.5 0.2100000000008044 0  0.5 0.2000000000008322 0  0.5 0.19000000000086 0  0.5 0.1800000000008877 0  0.5 0.1700000000009154 0  0.5 0.1600000000009431 0  0.5 0.1500000000009709 0  0.5 0.1400000000009986 0  0.5 0.1300000000010264 0  0.5 0.1200000000010541 0  0.5 0.1100000000010818 0  0.5 0.1000000000011096 0  0.5 0.09000000000113734 0  0.5 0.08000000000116503 0  0.5 0.07000000000119283 0  0.5 0.06000000000122058 0  0.5 0.05000000000124827 0  0.5 0.04000000000127607 0  0.5 0.03000000000130376 0  0.5 0.02000000000133151 0  0.5 0.01000000000135925 0  0.5 1.376121439022882e-12 0  0.5 -0.009999999998640763 0  0.5 -0.01999999999866864 0  0.5 -0.02999999999869629 0  0.5 -0.03999999999872406 0  0.5 -0.04999999999875182 0  0.5 -0.05999999999877947 0  0.5 -0.06999999999880724 0  0.5 -0.079999999998835 0  0.5 -0.08999999999886266 0  0.5 -0.09999999999889042 0  0.5 -0.1099999999989182 0  0.5 -0.1199999999989459 0  0.5 -0.1299999999989737 0  0.5 -0.1399999999990014 0  0.5 -0.1499999999990291 0  0.5 -0.1599999999990568 0  0.5 -0.1699999999990847 0  0.5 -0.1799999999991124 0  0.5 -0.1899999999991401 0  0.5 -0.1999999999991678 0  0.5 -0.2099999999991955 0  0.5 -0.2199999999992234 0  0.5 -0.2299999999992511 0  0.5 -0.2399999999992788 0  0.5 -0.2499999999993066 0  0.5 -0.2599999999993342 0  0.5 -0.269999999999362 0  0.5 -0.2799999999993897 0  0.5 -0.2899999999994175 0  0.5 -0.2999999999994452 0  0.5 -0.3099999999994729 0  0.5 -0.3199999999995007 0  0.5 -0.3299999999995284 0  0.5 -0.3399999999995562 0  0.5 -0.3499999999995839 0  0.5 -0.3599999999996116 0  0.5 -0.3699999999996393 0  0.5 -0.379999999999667 0  0.5 -0.3899999999996949 0  0.5 -0.3999999999997226 0  0.5 -0.4099999999997503 0  0.5 -0.419999999999778 0  0.5 -0.4299999999998058 0  0.5 -0.4399999999998336 0  0.5 -0.4499999999998613 0  0.5 -0.4599999999998891 0  0.5 -0.4699999999999167 0  0.5 -0.4799999999999445 0  0.5 -0.4899999999999722 0  0.4900000000000277 -0.5 0  0.4800000000000555 -0.5 0  0.4700000000000832 -0.5 0  0.4600000000001109 -0.5 0  0.4500000000001387 -0.5 0  0.4400000000001664 -0.5 0  0.4300000000001942 -0.5 0  0.4200000000002219 -0.5 0  0.4100000000002497 -0.5 0  0.4000000000002774 -0.5 0  0.3900000000003052 -0.5 0  0.3800000000003328 -0.5 0  0.3700000000003606 -0.5 0  0.3600000000003883 -0.5 0  0.3500000000004161 -0.5 0  0.3400000000004438 -0.5 0  0.3300000000004716 -0.5 0  0.3200000000004993 -0.5 0  0.3100000000005271 -0.5 0  0.3000000000005548 -0.5 0  0.2900000000005825 -0.5 0  0.2800000000006103 -0.5 0  0.2700000000006381 -0.5 0  0.2600000000006658 -0.5 0  0.2500000000006935 -0.5 0  0.2400000000007212 -0.5 0  0.230000000000749 -0.5 0  0.2200000000007767 -0.5 0  0.2100000000008044 -0.5 0  0.2000000000008322 -0.5 0  0.19000000000086 -0.5 0  0.1800000000008877 -0.5 0  0.1700000000009154 -0.5 0  0.1600000000009431 -0.5 0  0.1500000000009709 -0.5 0  0.1400000000009986 -0.5 0  0.1300000000010264 -0.5 0  0.1200000000010541 -0.5 0  0.1100000000010818 -0.5 0  0.1000000000011096 -0.5 0  0.09000000000113734 -0.5 0  0.08000000000116503 -0.5 0  0.07000000000119283 -0.5 0  0.06000000000122058 -0.5 0  0.05000000000124827 -0.5 0  0.04000000000127607 -0.5 0  0.03000000000130376 -0.5 0  0.02000000000133151 -0.5 0  0.01000000000135925 -0.5 0  1.376121439022882e-12 -0.5 0  -0.009999999998640763 -0.5 0  -0.01999999999866864 -0.5 0  -0.02999999999869629 -0.5 0  -0.03999999999872406 -0.5 0  -0.04999999999875182 -0.5 0  -0.05999999999877947 -0.5 0  -0.06999999999880724 -0.5 0  -0.079999999998835 -0.5 0  -0.08999999999886266 -0.5 0  -0.09999999999889042 -0.5 0  -0.1099999999989182 -0.5 0  -0.1199999999989459 -0.5 0  -0.1299999999989737 -0.5 0  -0.1399999999990014 -0.5 0  -0.1499999999990291 -0.5 0  -0.1599999999990568 -0.5 0  -0.1699999999990847 -0.5 0  -0.1799999999991124 -0.5 0  -0.1899999999991401 -0.5 0  -0.1999999999991678 -0.5 0  -0.2099999999991955 -0.5 0  -0.2199999999992234 -0.5 0  -0.2299999999992511 -0.5 0  -0.2399999999992788 -0.5 0  -0.2499999999993066 -0.5 0  -0.2599999999993342 -0.5 0  -0.269999999999362 -0.5 0  -0.2799999999993897 -0.5 0  -0.2899999999994175 -0.5 0  -0.2999999999994452 -0.5 0  -0.3099999999994729 -0.5 0  -0.3199999999995007 -0.5 0  -0.3299999999995284 -0.5 0  -0.3399999999995562 -0.5 0  -0.3499999999995839 -0.5 0  -0.3599999999996116 -0.5 0  -0.3699999999996393 -0.5 0  -0.379999999999667 -0.5 0  -0.3899999999996949 -0.5 0  -0.3999999999997226 -0.5 0  -0.4099999999997503 -0.5 0  -0.419999999999778 -0.5 0  -0.4299999999998058 -0.5 0  -0.4399999999998336 -0.5 0  -0.4499999999998613 -0.5 0  -0.4599999999998891 -0.5 0  -0.4699999999999167 -0.5 0  -0.4799999999999445 -0.5 0  -0.4899999999999722 -0.5 0  -0.5 -0.4900000000000277 0  -0.5 -0.4800000000000555 0  -0.5 -0.4700000000000832 0  -0.5 -0.4600000000001109 0  -0.5 -0.4500000000001387 0  -0.5 -0.4400000000001664 0  -0.5 -0.4300000000001942 0  -0.5 -0.4200000000002219 0  -0.5 -0.4100000000002497 0  -0.5 -0.4000000000002774 0  -0.5 -0.3900000000003052 0  -0.5 -0.3800000000003328 0  -0.5 -0.3700000000003606 0  -0.5 -0.3600000000003883 0  -0.5 -0.3500000000004161 0  -0.5 -0.3400000000004438 0  -0.5 -0.3300000000004716 0  -0.5 -0.3200000000004993 0  -0.5 -0.3100000000005271 0  -0.5 -0.3000000000005548 0  -0.5 -0.2900000000005825 0  -0.5 -0.2800000000006103 0  -0.5 -0.2700000000006381 0  -0.5 -0.2600000000006658 0  -0.5 -0.2500000000006935 0  -0.5 -0.2400000000007212 0  -0.5 -0.230000000000749 0  -0.5 -0.2200000000007767 0  -0.5 -0.2100000000008044 0  -0.5 -0.2000000000008322 0  -0.5 -0.19000000000086 0  -0.5 -0.1800000000008877 0  -0.5 -0.1700000000009154 0  -0.5 -0.1600000000009431 0  -0.5 -0.1500000000009709 0  -0.5 -0.1400000000009986 0  -0.5 -0.1300000000010264 0  -0.5 -0.1200000000010541 0  -0.5 -0.1100000000010818 0  -0.5 -0.1000000000011096 0  -0.5 -0.09000000000113734 0  -0.5 -0.08000000000116503 0  -0.5 -0.07000000000119283 0  -0.5 -0.06000000000122058 0  -0.5 -0.05000000000124827 0  -0.5 -0.04000000000127607 0  -0.5 -0.03000000000130376 0  -0.5 -0.02000000000133151 0  -0.5 -0.01000000000135925 0  -0.5 -1.376121439022882e-12 0  -0.5 0.009999999998640763 0  -0.5 0.01999999999866864 0  -0.5 0.02999999999869629 0  -0.5 0.03999999999872406 0  -0.5 0.04999999999875182 0  -0.5 0.05999999999877947 0  -0.5 0.06999999999880724 0  -0.5 0.079999999998835 0  -0.5 0.08999999999886266 0  -0.5 0.09999999999889042
[...]
<PointData  Vectors="f_27-0"> 
<DataArray  type="Float64"  Name="f_27-0"  NumberOfComponents="3" format="ascii">1.9596630408898626e-03 5.0616695516157592e-02 0.0000000000000000e+00  -2.6866206601110290e-03 5.0182225771341203e-02 0.0000000000000000e+00  -6.7950191547377610e-04 3.6800304179968171e-02 0.0000000000000000e+00  7.6017651589431587e-04 3.6692526473998670e-02 0.0000000000000000e+00  -1.8673024533373333e-03 6.6716271114438813e-03 0.0000000000000000e+00  1.9296864386187079e-03 6.5774263284639513e-03 0.0000000000000000e+00  -8.0872975551033940e-04 6.1896700979658494e-03 0.0000000000000000e+00  8.1212154159243882e-04 6.2245991118823072e-03 0.0000000000000000e+00  3.3191428081230261e-03 4.9818674094824877e-02 0.0000000000000000e+00  4.6300089137933965e-03 4.8932916683104871e-02 0.0000000000000000e+00  5.8848451503457294e-03 4.7965532497400667e-02 0.0000000000000000e+00  7.0799361306898897e-03 4.6921472745795431e-02 0.0000000000000000e+00  8.2085788161419225e-03 4.5808405143663217e-02 0.0000000000000000e+00  9.2685167174629268e-03 4.4631220611115317e-02 0.0000000000000000e+00  1.0254276114853710e-02 4.3399706226163667e-02 0.0000000000000000e+00  1.1164999297568446e-02 4.2118762775976794e-02 0.0000000000000000e+00  1.1997817849527845e-02 4.0796431354448506e-02 0.0000000000000000e+00  1.2749825166473199e-02 3.9441588353850032e-02 0.0000000000000000e+00  1.3422298664858502e-02 3.8060855632251742e-02 0.0000000000000000e+00  1.4014529549814638e-02 3.6660188571648343e-02 0.0000000000000000e+00  1.4526832662092056e-02 3.5247591768025180e-02 0.0000000000000000e+00  1.4961032019114766e-02 3.3828153543163257e-02 0.0000000000000000e+00  1.5316688784285501e-02 3.2411311984044254e-02 0.0000000000000000e+00  1.5597579791311825e-02 3.1000362875396294e-02 0.0000000000000000e+00  1.5805323058624789e-02 2.9600861947314917e-02 0.0000000000000000e+00  1.5941889248450931e-02 2.8219336519329313e-02 0.0000000000000000e+00  1.6010855172926813e-02 2.6860267399131710e-02 0.0000000000000000e+00  1.6015184081763976e-02 2.5526345609034343e-02 0.0000000000000000e+00  1.5957477008488114e-02 2.4222499114877487e-02 0.0000000000000000e+00  1.5841567199418254e-02 2.2951143571974721e-02 0.0000000000000000e+00  1.5670597774535437e-02 2.1715088140144924e-02 0.0000000000000000e+00  1.5447515877098826e-02 2.0519163421127314e-02 0.0000000000000000e+00  1.5175853555903642e-02 1.9363161988267610e-02 0.0000000000000000e+00  1.4859214071814154e-02 1.8249520103510764e-02 0.0000000000000000e+00  1.4500250513022008e-02 1.7179536298075015e-02 0.0000000000000000e+00  1.4102281301986737e-02 1.6155623132696615e-02 0.0000000000000000e+00  1.3668457739590221e-02 1.5176505908266505e-02 0.0000000000000000e+00  1.3201720587998948e-02 1.4244044291790077e-02 0.0000000000000000e+00  1.2704465411103824e-02 1.3358930796087388e-02 0.0000000000000000e+00  1.2179454116421773e-02 1.2521295751767613e-02 0.0000000000000000e+00  1.1629284030686117e-02 1.1731643670039900e-02 0.0000000000000000e+00  1.1056346729455994e-02 1.0989068846761466e-02 0.0000000000000000e+00  1.0462520817530326e-02 1.0293770659231800e-02 0.0000000000000000e+00  9.8500148862573304e-03 9.6452002094464875e-03 0.0000000000000000e+00  9.2209699265307452e-03 9.0439782481010027e-03 0.0000000000000000e+00  8.5768499293044816e-03 8.4890768309601791e-03 0.0000000000000000e+00  7.9195067041841899e-03 7.9798882685976399e-03 0.0000000000000000e+00  7.2504715739035424e-03 7.5171381963072461e-03 0.0000000000000000e+00  6.5712234149269211e-03 7.0992872858304298e-03 0.0000000000000000e+00  5.8831584922170617e-03 6.7254110659936877e-03 0.0000000000000000e+00  5.1872985000362155e-03 6.3970959155594410e-03 0.0000000000000000e+00  4.4849962932837235e-03 6.1125554950847254e-03 0.0000000000000000e+00  3.7772882817609771e-03 5.8717546276326792e-03 0.0000000000000000e+00  3.0649644769203399e-03 5.6740852721908546e-03 0.0000000000000000e+00  2.3496413905224091e-03 5.5201534331701455e-03 0.0000000000000000e+00  1.6315031600335470e-03 5.4086596718799203e-03 0.0000000000000000e+00  9.1214396359019952e-04 5.3394161164955264e-03 0.0000000000000000e+00  1.9185040143364303e-04 5.3133088078597011e-03 0.0000000000000000e+00  -5.2822279223216102e-04 5.3298460403864460e-03 0.0000000000000000e+00  -1.2470885001825806e-03 5.3881312342138376e-03 0.0000000000000000e+00  -1.9642390847568808e-03 5.4887548343974914e-03 0.0000000000000000e+00  -2.6784432369960608e-03 5.6322925807324774e-03 0.0000000000000000e+00  -3.3890560196404495e-03 5.8190139189119947e-03 0.0000000000000000e+00  -4.0948229581516185e-03 6.0485888606937642e-03 0.0000000000000000e+00  -4.7950497582969608e-03 6.3215076461650439e-03 0.0000000000000000e+00  -5.4884882400293034e-03 6.6375649806893868e-03 0.0000000000000000e+00  -6.1742766165374463e-03 6.9975286317196005e-03 0.0000000000000000e+00  -6.8511269420434961e-03 7.4011330849891258e-03 0.0000000000000000e+00  -7.5175341232080074e-03 7.8500378298045573e-03 0.0000000000000000e+00  -8.1727162969971248e-03 8.3432450787403589e-03 0.0000000000000000e+00  -8.8145019466121504e-03 8.8815638486319064e-03 0.0000000000000000e+00  -9.4417892075481721e-03 9.4654045986073895e-03 0.0000000000000000e+00  -1.0052916758744318e-02 1.0094685716281917e-02 0.0000000000000000e+00  -1.0645665588049394e-02 1.0769793533714460e-02 0.0000000000000000e+00  -1.1218938613730306e-02 1.1491486083867953e-02 0.0000000000000000e+00  -1.1769524508034002e-02 1.2259715967318976e-02 0.0000000000000000e+00  -1.2296636589158392e-02 1.3074141360195791e-02 0.0000000000000000e+00  -1.2796656667934555e-02 1.3934761420792901e-02 0.0000000000000000e+00  -1.3268047800019630e-02 1.4842184194821018e-02 0.0000000000000000e+00  -1.3708113849871233e-02 1.5793938127771034e-02 0.0000000000000000e+00  -1.4113905825764678e-02 1.6790341317733121e-02 0.0000000000000000e+00  -1.4483149443761036e-02 1.7831680378210576e-02 0.0000000000000000e+00  -1.4812173217224448e-02 1.8915945234303188e-02 0.0000000000000000e+00  -1.5099067959585603e-02 2.0042010094764549e-02 0.0000000000000000e+00  -1.5339549915785627e-02 2.1209232894192437e-02 0.0000000000000000e+00  -1.5531520785154284e-02 2.2413179820832664e-02 0.0000000000000000e+00  -1.5671475235573995e-02 2.3653983137334279e-02 0.0000000000000000e+00  -1.5756097216726262e-02 2.4928530669076725e-02 0.0000000000000000e+00  -1.5782644444043065e-02 2.6233646758541205e-02 0.0000000000000000e+00  -1.5747548854205033e-02 2.7565680542240401e-02 0.0000000000000000e+00  -1.5648695023852667e-02 2.8921584010986684e-02 0.0000000000000000e+00  -1.5481891930218485e-02 3.0297674065739622e-02 0.0000000000000000e+00  -1.5246013516598213e-02 3.1687306102257409e-02 0.0000000000000000e+00  -1.4937948376234527e-02 3.3086991402401594e-02 0.0000000000000000e+00  -1.4555326567517214e-02 3.4492265188110098e-02 0.0000000000000000e+00  -1.4096619760347545e-02 3.5895634451023638e-02 0.0000000000000000e+00  -1.3560712688254907e-02 3.7291280217460962e-02 0.0000000000000000e+00  -1.2946374069155664e-02 3.8672487045097091e-02 0.0000000000000000e+00  -1.2253663820695910e-02 4.0033294190145084e-02 0.0000000000000000e+00  -1.1481084353535776e-02 4.1367555632046478e-02 0.0000000000000000e+00  -1.0631010446778701e-02 4.2666458563508362e-02 0.0000000000000000e+00  -9.7041238212188241e-03 4.3922909414579887e-02 0.0000000000000000e+00  -8.7015112653520722e-03 4.5131340934710835e-02 0.0000000000000000e+00  -7.6281213676726353e-03 4.6281482456274205e-02 0.0000000000000000e+00  -6.4846638659786481e-03 4.7369102977117453e-02 0.0000000000000000e+00  -5.2766388743460168e-03 4.8386041710986927e-02 0.0000000000000000e+00  -4.0089236793655883e-03 4.9325652996322675e-02 0.0000000000000000e+00  -3.0440105408407461e-03 5.1566183579857018e-02 0.0000000000000000e+00  -3.4292779844277929e-03 5.3022953518082734e-02 0.0000000000000000e+00  -3.8425848118065114e-03 5.4560311943160619e-02 0.0000000000000000e+00  -4.2879023727399115e-03 5.6180638836685948e-02 0.0000000000000000e+00  -4.7667525061132832e-03 5.7892211176768307e-02 0.0000000000000000e+00  -5.2855279570126843e-03 5.9698853654412944e-02 0.0000000000000000e+00  -5.8420474965808463e-03 6.1607773440409914e-02 0.0000000000000000e+00  -6.4467702887749763e-03 6.3626356848581256e-02 0.0000000000000000e+00  -7.1030215772423131e-03 6.5759861422619040e-02 0.0000000000000000e+00  -7.8128391114242971e-03 6.8017642720613489e-02 0.0000000000000000e+00  -8.5855299338446038e-03 7.0405814271360542e-02 0.0000000000000000e+00  -9.4303801579438632e-03 7.2929527503612146e-02 0.0000000000000000e+00  -1.0353833439959541e-02 7.5597013153960238e-02 0.0000000000000000e+00  -1.1367257741198801e-02 7.8407168624913731e-02 0.0000000000000000e+00  -1.2476313260743967e-02 8.1365761307502629e-02 0.0000000000000000e+00  -1.3688369861934323e-02 8.4470832220169240e-02 0.0000000000000000e+00  -1.5010360048897116e-02 8.7708271982625818e-02 0.0000000000000000e+00  -1.6428955540222692e-02 9.1070599683883036e-02 0.0000000000000000e+00  -1.7915938815336083e-02 9.4522913547054208e-02 0.0000000000000000e+00  -1.9408490392743286e-02 9.8024094996818731e-02 0.0000000000000000e+00  -2.0778037645144277e-02 1.0152292913531313e-01 0.0000000000000000e+00  -2.1816885823228813e-02 1.0493953443067405e-01 0.0000000000000000e+00  -2.2183036285499568e-02 1.0819802012211968e-01 0.0000000000000000e+00  -2.1413851176163064e-02 1.1120828705287412e-01 0.0000000000000000e+00  -1.8908454198270353e-02 1.1388979615861305e-01 0.0000000000000000e+00  -1.3993638523041587e-02 1.1621562475943356e-01 0.0000000000000000e+00  -6.1806972636750347e-03 1.1816889734944999e-01 0.0000000000000000e+00  4.6778558674389339e-03 1.1978246705111092e-01 0.0000000000000000e+00  1.8025060986077767e-02 1.2108377420287068e-01 0.0000000000000000e+00  3.2657350809031135e-02 1.2193743171218416e-01 0.0000000000000000e+00  4.6595243636380061e-02 1.2214141612822065e-01 0.0000000000000000e+00  5.7368241389671823e-02 1.2124553421281509e-01 0.0000000000000000e+00  6.2030504584161532e-02 1.1895662785512039e-01 0.0000000000000000e+00  5.7159595722311260e-02 1.1529129379183671e-01 0.0000000000000000e+00  4.0560800280350542e-02 1.1106142455174685e-01 0.0000000000000000e+00  1.3234886373743262e-02 1.0842182298635590e-01 0.0000000000000000e+00  -1.7882059370608678e-02 1.0968438667169965e-01 0.0000000000000000e+00  -4.2312537990814698e-02 1.1669180948711870e-01 0.0000000000000000e+00  -5.2374584999891782e-02 1.2872878385679268e-01 0.0000000000000000e+00  -5.0182614792584963e-02 1.4236239710213019e-01 0.0000000000000000e+00  -4.3550239980032213e-02 1.5419427154332499e-01 0.0000000000000000e+00  -3.7086494072178927e-02 1.6301989566612243e-01 0.0000000000000000e+00  -3.1474137628704844e-02 1.6905427836002174e-01 0.0000000000000000e+00  -2.6478515264567275e-02 1.7292536765902955e-01 0.0000000000000000e+00  -2.1965339581733710e-02 1.7504656547394651e-01 0.0000000000000000e+00  -1.7836749856156339e-02 1.7577448138769644e-01 0.0000000000000000e+00  -1.4030237888029137e-02 1.7533457637715155e-01 0.0000000000000000e+00  -1.0586823270115966e-02 1.7393666514772171e-01 0.0000000000000000e+00  -7.4412406082042873e-03 1.7175943600478305e-01 0.0000000000000000e+00  -4.6005001365417532e-03 1.6893580385288726e-01 0.0000000000000000e+00  -2.0632084702009667e-03 1.6557412104550945e-01 0.0000000000000000e+00  1.6205556126443074e-04 1.6180026324152708e-01 0.0000000000000000e+00  2.0971289282740117e-03 1.5770716023042083e-01 0.0000000000000000e+00  3.7690295958498722e-03 1.5337096768726449e-01 0.0000000000000000e+00  5.1707086255765268e-03 1.4886563819251297e-01 0.0000000000000000e+00  6.3332371107903858e-03 1.4425376066277076e-01 0.0000000000000000e+00  7.2669560877449161e-03 1.3959345372213128e-01 0.0000000000000000e+00  7.9878302940126697e-03 1.3493614012503843e-01 0.0000000000000000e+00  8.5278222312619913e-03 1.3031041961236753e-01 0.0000000000000000e+00  8.9013244116751093e-03 1.2575643939033579e-01 0.0000000000000000e+00  9.1363907347506001e-03 1.2129116705472300e-01 0.0000000000000000e+00  9.2458186408693587e-03 1.1694211950920563e-01 0.0000000000000000e+00  9.2516194826366069e-03 1.1272087879437323e-01 0.0000000000000000e+00  9.1682292800624940e-03 1.0863895137739620e-01 0.0000000000000000e+00  9.0114578839312204e-03 1.0470378305100657e-01 0.0000000000000000e+00  8.7956198942265792e-03 1.0091692364322295e-01 0.0000000000000000e+00  8.5327439317094220e-03 9.7285988015644642e-02 0.0000000000000000e+00  8.2350215465376159e-03 9.3800775171698048e-02 0.0000000000000000e+00  7.9082207049667695e-03 9.0470671702162248e-02 0.0000000000000000e+00  7.5616417100489572e-03 8.7283036345321516e-02 0.0000000000000000e+00  7.1999176298174128e-03 8.4239586468528527e-02 0.0000000000000000e+00  6.8257798577855159e-03 8.1335062051811083e-02 0.0000000000000000e+00  6.4456043817337034e-03 7.8565707856068034e-02 0.0000000000000000e+00  6.0653795849224144e-03 7.5922911383852223e-02 0.0000000000000000e+00  5.6868415470659297e-03 7.3401130297065728e-02 0.0000000000000000e+00  5.3104498171843229e-03 7.0999238852208921e-02 0.0000000000000000e+00  4.9421028591168986e-03 6.8706123246844691e-02 0.0000000000000000e+00  4.5770545196829361e-03 6.6520785688259046e-02 0.0000000000000000e+00  4.2217507868734985e-03 6.4435190632119790e-02 0.0000000000000000e+00  3.8761765734408940e-03 6.2446102475622003e-02 0.0000000000000000e+00  3.5400007771792634e-03 6.0548248611288796e-02 0.0000000000000000e+00  3.2142925771398937e-03 5.8735978453389702e-02 0.0000000000000000e+00  2.8999610529311893e-03 5.7006667786177120e-02 0.0000000000000000e+00  2.5975416583534916e-03 5.5353616275561644e-02 0.0000000000000000e+00  2.3055941117512339e-03 5.3775405766345465e-02 0.0000000000000000e+00  2.0259080221234323e-03 5.2265995455025402e-02 0.0000000000000000e+00  1.7589181240744672e-03 5.0823509056237857e-02 0.0000000000000000e+00  1.5031599642221492e-03 4.9443428743512305e-02 0.0000000000000000e+00  1.2593259238987992e-03 4.8123609949479965e-02 0.0000000000000000e+00  1.0266748126477954e-03 4.6860062106464595e-02 0.0000000000000000e+00  8.0621098948901635e-04 4.5650909488541662e-02 0.0000000000000000e+00  5.9769632680019237e-04 4.4492419137467105e-02 0.0000000000000000e+00  4.0016501541484417e-04 4.3383050948537845e-02 0.0000000000000000e+00  2.1351571358952320e-04 4.2319758169703993e-02 0.0000000000000000e+00  3.8839773761752200e-05 4.1300334127599932e-02 0.0000000000000000e+00  -1.2555016708564891e-04 4.0323581873082014e-02 0.0000000000000000e+00  -2.7901190058923320e-04 3.9386665421417610e-02 0.0000000000000000e+00  -4.2174240150873849e-04 3.8488267811777506e-02 0.0000000000000000e+00  -5.5520297264516219e-04 3.7626730128177320e-02 0.0000000000000000e+00  1.1892890619481849e-04 3.6331512759074834e-02 0.0000000000000000e+00  8.9304458956439975e-04 3.5818702123695534e-02 0.0000000000000000e+00  1.6411682962135844e-03 3.5263425596951108e-02 0.0000000000000000e+00  2.3603486336305208e-03 3.4668361840407558e-02 0.0000000000000000e+00  3.0491242222099074e-03 3.4035463187038401e-02 0.0000000000000000e+00  3.7049376351402743e-03 3.3368039195071961e-02 0.0000000000000000e+00  4.3267499261747232e-03 3.2667872078827605e-02 0.0000000000000000e+00  4.9122911151669776e-03 3.1938370678969097e-02 0.0000000000000000e+00  5.4604604074401696e-03 3.1182381222443798e-02 0.0000000000000000e+00  5.9706730321747205e-03 3.0402621208206301e-02 0.0000000000000000e+00  6.4413819775550763e-03 2.9602199843676839e-02 0.0000000000000000e+00  6.8719345984945366e-03 2.8784698676652724e-02 0.0000000000000000e+00  7.2618709007486642e-03 2.7952709061347364e-02 0.0000000000000000e+00  7.6104672951562737e-03 2.7110102825679796e-02 0.0000000000000000e+00  7.9183995761718650e-03 2.6258813171945679e-02 0.0000000000000000e+00  8.1850100753848611e-03 2.5402732212718392e-02 0.0000000000000000e+00  8.4106836196979340e-03 2.4544959504638354e-02 0.0000000000000000e+00  8.5960086552777093e-03 2.3687956192747193e-02 0.0000000000000000e+00  8.7414698570418697e-03 2.2834367746165346e-02 0.0000000000000000e+00  8.8474814827523875e-03 2.1987640922747690e-02 0.0000000000000000e+00  8.9152010388000042e-03 2.1149743245982996e-02 0.0000000000000000e+00  8.9453726026641998e-03 2.0323553093642317e-02 0.0000000000000000e+00  8.9389879459029972e-03 1.9511418757110523e-02 0.0000000000000000e+00  8.8976897070883552e-03 1.8714738265450961e-02 0.0000000000000000e+00  8.8223109283419605e-03 1.7936120538603360e-02 0.0000000000000000e+00  8.7141622716747028e-03 1.7177341500275983e-02 0.0000000000000000e+00  8.5747694090615462e-03 1.6440249653494006e-02 0.0000000000000000e+00  8.4056393437198541e-03 1.5725926167615374e-02 0.0000000000000000e+00  8.2079707089445595e-03 1.5036777903495079e-02 0.0000000000000000e+00  7.9831441429266160e-03 1.4373512029473767e-02 0.0000000000000000e+00  7.7329372413887845e-03 1.3737389839909513e-02 0.0000000000000000e+00  7.4586285176909892e-03 1.3129356394168281e-02 0.0000000000000000e+00  7.1618836792074958e-03 1.2550169227871267e-02 0.0000000000000000e+00  6.8439197998433326e-03 1.2001216921722185e-02 0.0000000000000000e+00  6.5063780013609497e-03 1.1482957182143521e-02 0.0000000000000000e+00  6.1506761130727516e-03 1.0996379128764510e-02 0.0000000000000000e+00  5.7780291695144273e-03 1.0541247778892794e-02 0.0000000000000000e+00  5.3900779087600065e-03 1.0118779550801153e-02 0.0000000000000000e+00  4.9878915266392395e-03 9.7291187182278194e-03 0.0000000000000000e+00  4.5731108821406444e-03 9.3722514428983220e-03 0.0000000000000000e+00  4.1467824180443499e-03 9.0490673929258438e-03 0.0000000000000000e+00  3.7100996796723151e-03 8.7601386865435033e-03 0.0000000000000000e+00  3.2645626800587592e-03 8.5045330025834021e-03 0.0000000000000000e+00  2.8111416086491255e-03 8.2830646117155963e-03 0.0000000000000000e+00  2.3511138057861493e-03 8.0956976994879578e-03 0.0000000000000000e+00  1.8857179138604030e-03 7.9426294078719720e-03 0.0000000000000000e+00  1.4158606225441531e-03 7.8235029265519510e-03 0.0000000000000000e+00  9.4305457311074856e-04 7.7390658987501193e-03 0.0000000000000000e+00  4.6797023430063576e-04 7.6892902547071682e-03 0.0000000000000000e+00  -7.8991856509826039e-06 7.6735705955998821e-03 0.0000000000000000e+00  -4.8364297821050170e-04 7.6922302083059814e-03 0.0000000000000000e+00  -9.5822546790321882e-04 7.7456807243300504e-03 0.0000000000000000e+00  -1.4303222301052265e-03 7.8336210160525870e-03 0.0000000000000000e+00  -1.8989839008813740e-03 7.9556551735626944e-03 0.0000000000000000e+00  -2.3629894472758386e-03 8.1117320132815651e-03 0.0000000000000000e+00  -2.8214109358355422e-03 8.3020413563529277e-03 0.0000000000000000e+00  -3.2728248018881714e-03 8.5262907109370407e-03 0.0000000000000000e+00  -3.7162574055684141e-03 8.7847142667276754e-03 0.0000000000000000e+00  -4.1503866875341562e-03 9.0767173175621465e-03 0.0000000000000000e+00  -4.5739478557337530e-03 9.4025200803489854e-03 0.0000000000000000e+00  -4.9859757143898252e-03 9.7610584150409456e-03 0.0000000000000000e+00  -5.3847769557313803e-03 1.0152860671563908e-02 0.0000000000000000e+00  -5.7694331162761719e-03 1.0577189418797088e-02 0.0000000000000000e+00  -6.1383831051689168e-03 1.1033688906139687e-02 0.0000000000000000e+00  -6.4902371042055828e-03 1.1521876187939465e-02 0.0000000000000000e+00  -6.8237466303281251e-03 1.2041228018051322e-02 0.0000000000000000e+00  -7.1373251645409008e-03 1.2590906537087601e-02 0.0000000000000000e+00  -7.4299581074400338e-03 1.3169900520677503e-02 0.0000000000000000e+00  -7.6995346107682373e-03 1.3777978611690231e-02 0.0000000000000000e+00  -7.9452954497461481e-03 1.4413742368128134e-02 0.0000000000000000e+00  -8.1654057792459080e-03 1.5076042178895346e-02 0.0000000000000000e+00  -8.3583540704467215e-03 1.5764445336700073e-02 0.0000000000000000e+00  -8.5228252391885626e-03 1.6477447198352972e-02 0.0000000000000000e+00  -8.6574737805388234e-03 1.7212701496055777e-02 0.0000000000000000e+00  -8.7610589648877447e-03 1.7969272096701714e-02 0.0000000000000000e+00  -8.8316423289334905e-03 1.8745219694881271e-02 0.0000000000000000e+00  -8.8689486927075144e-0