<?xml version="1.0"?>
<VTKFile type="UnstructuredGrid"  version="0.1"  >
<UnstructuredGrid>
<Piece  NumberOfPoints="16275" NumberOfCells="32468">
<Points>
<DataArray  type="Float64"  NumberOfComponents="3"  format="ascii">-0.5 0.5 0  0.5 0.5 0  0.5 -0.5 0  -0.5 -0.5 0  -1 1 0  1 1 0  1 -1 0  -1 -1 0  -0.4900000000000277 0.5 0  -0.4800000000000555 0.5 0  -0.4700000000000832 0.5 0  -0.4600000000001109 0.5 0  -0.4500000000001387 0.5 0  -0.4400000000001664 0.5 0  -0.4300000000001942 0.5 0  -0.4200000000002219 0.5 0  -0.4100000000002497 0.5 0  -0.4000000000002774 0.5 0  -0.3900000000003052 0.5 0  -0.3800000000003328 0.5 0  -0.3700000000003606 0.5 0  -0.3600000000003883 0.5 0  -0.3500000000004161 0.5 0  -0.3400000000004438 0.5 0  -0.3300000000004716 0.5 0  -0.3200000000004993 0.5 0  -0.3100000000005271 0.5 0  -0.3000000000005548 0.5 0  -0.2900000000005825 0.5 0  -0.2800000000006103 0.5 0  -0.2700000000006381 0.5 0  -0.2600000000006658 0.5 0  -0.2500000000006935 0.5 0  -0.2400000000007212 0.5 0  -0.230000000000749 0.5 0  -0.2200000000007767 0.5 0  -0.2100000000008044 0.5 0  -0.2000000000008322 0.5 0  -0.19000000000086 0.5 0  -0.1800000000008877 0.5 0  -0.1700000000009154 0.5 0  -0.1600000000009431 0.5 0  -0.1500000000009709 0.5 0  -0.1400000000009986 0.5 0  -0.1300000000010264 0.5 0  -0.1200000000010541 0.5 0  -0.1100000000010818 0.5 0  -0.1000000000011096 0.5 0  -0.09000000000113734 0.5 0  -0.08000000000116503 0.5 0  -0.07000000000119283 0.5 0  -0.06000000000122058 0.5 0  -0.05000000000124827 0.5 0  -0.04000000000127607 0.5 0  -0.03000000000130376 0.5 0  -0.02000000000133151 0.5 0  -0.01000000000135925 0.5 0  -1.376121439022882e-12 0.5 0  0.009999999998640763 0.5 0  0.01999999999866864 0.5 0  0.02999999999869629 0.5 0  0.03999999999872406 0.5 0  0.04999999999875182 0.5 0  0.05999999999877947 0.5 0  0.06999999999880724 0.5 0  0.079999999998835 0.5 0  0.08999999999886266 0.5 0  0.09999999999889042 0.5 0  0.1099999999989182 0.5 0  0.1199999999989459 0.5 0  0.1299999999989737 0.5 0  0.1399999999990014 0.5 0  0.1499999999990291 0.5 0  0.1599999999990568 0.5 0  0.1699999999990847 0.5 0  0.1799999999991124 0.5 0  0.1899999999991401 0.5 0  0.1999999999991678 0.5 0  0.2099999999991955 0.5 0  0.2199999999992234 0.5 0  0.2299999999992511 0.5 0  0.2399999999992788 0.5 0  0.2499999999993066 0.5 0  0.2599999999993342 0.5 0  0.269999999999362 0.5 0  0.2799999999993897 0.5 0  0.2899999999994175 0.5 0  0.2999999999994452 0.5 0  0.3099999999994729 0.5 0  0.3199999999995007 0.5 0  0.3299999999995284 0.5 0  0.3399999999995562 0.5 0  0.3499999999995839 0.5 0  0.3599999999996116 0.5 0  0.3699999999996393 0.5 0  0.379999999999667 0.5 0  0.3899999999996949 0.5 0  0.3999999999997226 0.5 0  0.4099999999997503 0.5 0  0.419999999999778 0.5 0  0.4299999999998058 0.5 0  0.4399999999998336 0.5 0  0.4499999999998613 0.5 0  0.4599999999998891 0.5 0  0.4699999999999167 0.5 0  0.4799999999999445 0.5 0  0.4899999999999722 0.5 0  0.5 0.4900000000000277 0  0.5 0.4800000000000555 0  0.5 0.4700000000000832 0  0.5 0.4600000000001109 0  0.5 0.4500000000001387 0  0.5 0.4400000000001664 0  0.5 0.4300000000001942 0  0.5 0.4200000000002219 0  0.5 0.4100000000002497 0  0.5 0.4000000000002774 0  0.5 0.3900000000003052 0  0.5 0.3800000000003328 0  0.5 0.3700000000003606 0  0.5 0.3600000000003883 0  0.5 0.3500000000004161 0  0.5 0.3400000000004438 0  0.5 0.3300000000004716 0  0.5 0.3200000000004993 0  0.5 0.3100000000005271 0  0.5 0.3000000000005548 0  0.5 0.2900000000005825 0  0.5 0.2800000000006103 0  0.5 0.2700000000006381 0  0.5 0.2600000000006658 0  0.5 0.2500000000006935 0  0.5 0.2400000000007212 0  0.5 0.230000000000749 0  0.5 0.2200000000007767 0  0.5 0.2100000000008044 0  0.5 0.2000000000008322 0  0.5 0.19000000000086 0  0.5 0.1800000000008877 0  0.5 0.1700000000009154 0  0.5 0.1600000000009431 0  0.5 0.1500000000009709 0  0.5 0.1400000000009986 0  0.5 0.1300000000010264 0  0.5 0.1200000000010541 0  0.5 0.1100000000010818 0  0.5 0.1000000000011096 0  0.5 0.09000000000113734 0  0.5 0.08000000000116503 0  0.5 0.07000000000119283 0  0.5 0.06000000000122058 0  0.5 0.05000000000124827 0  0.5 0.04000000000127607 0  0.5 0.03000000000130376 0  0.5 0.02000000000133151 0  0.5 0.01000000000135925 0  0.5 1.376121439022882e-12 0  0.5 -0.009999999998640763 0  0.5 -0.01999999999866864 0  0.5 -0.02999999999869629 0  0.5 -0.03999999999872406 0  0.5 -0.04999999999875182 0  0.5 -0.05999999999877947 0  0.5 -0.06999999999880724 0  0.5 -0.079999999998835 0  0.5 -0.08999999999886266 0  0.5 -0.09999999999889042 0  0.5 -0.1099999999989182 0  0.5 -0.1199999999989459 0  0.5 -0.1299999999989737 0  0.5 -0.1399999999990014 0  0.5 -0.1499999999990291 0  0.5 -0.1599999999990568 0  0.5 -0.1699999999990847 0  0.5 -0.1799999999991124 0  0.5 -0.1899999999991401 0  0.5 -0.1999999999991678 0  0.5 -0.2099999999991955 0  0.5 -0.2199999999992234 0  0.5 -0.2299999999992511 0  0.5 -0.2399999999992788 0  0.5 -0.2499999999993066 0  0.5 -0.2599999999993342 0  0.5 -0.269999999999362 0  0.5 -0.2799999999993897 0  0.5 -0.2899999999994175 0  0.5 -0.2999999999994452 0  0.5 -0.3099999999994729 0  0.5 -0.3199999999995007 0  0.5 -0.3299999999995284 0  0.5 -0.3399999999995562 0  0.5 -0.3499999999995839 0  0.5 -0.3599999999996116 0  0.5 -0.3699999999996393 0  0.5 -0.379999999999667 0  0.5 -0.3899999999996949 0  0.5 -0.3999999999997226 0  0.5 -0.4099999999997503 0  0.5 -0.419999999999778 0  0.5 -0.4299999999998058 0  0.5 -0.4399999999998336 0  0.5 -0.4499999999998613 0  0.5 -0.4599999999998891 0  0.5 -0.4699999999999167 0  0.5 -0.4799999999999445 0  0.5 -0.4899999999999722 0  0.4900000000000277 -0.5 0  0.4800000000000555 -0.5 0  0.4700000000000832 -0.5 0  0.4600000000001109 -0.5 0  0.4500000000001387 -0.5 0  0.4400000000001664 -0.5 0  0.4300000000001942 -0.5 0  0.4200000000002219 -0.5 0  0.4100000000002497 -0.5 0  0.4000000000002774 -0.5 0  0.3900000000003052 -0.5 0  0.3800000000003328 -0.5 0  0.3700000000003606 -0.5 0  0.3600000000003883 -0.5 0  0.3500000000004161 -0.5 0  0.3400000000004438 -0.5 0  0.3300000000004716 -0.5 0  0.3200000000004993 -0.5 0  0.3100000000005271 -0.5 0  0.3000000000005548 -0.5 0  0.2900000000005825 -0.5 0  0.2800000000006103 -0.5 0  0.2700000000006381 -0.5 0  0.2600000000006658 -0.5 0  0.2500000000006935 -0.5 0  0.2400000000007212 -0.5 0  0.230000000000749 -0.5 0  0.2200000000007767 -0.5 0  0.2100000000008044 -0.5 0  0.2000000000008322 -0.5 0  0.19000000000086 -0.5 0  0.1800000000008877 -0.5 0  0.1700000000009154 -0.5 0  0.1600000000009431 -0.5 0  0.1500000000009709 -0.5 0  0.1400000000009986 -0.5 0  0.1300000000010264 -0.5 0  0.1200000000010541 -0.5 0  0.1100000000010818 -0.5 0  0.1000000000011096 -0.5 0  0.09000000000113734 -0.5 0  0.08000000000116503 -0.5 0  0.07000000000119283 -0.5 0  0.06000000000122058 -0.5 0  0.05000000000124827 -0.5 0  0.04000000000127607 -0.5 0  0.03000000000130376 -0.5 0  0.02000000000133151 -0.5 0  0.01000000000135925 -0.5 0  1.376121439022882e-12 -0.5 0  -0.009999999998640763 -0.5 0  -0.01999999999866864 -0.5 0  -0.02999999999869629 -0.5 0  -0.03999999999872406 -0.5 0  -0.04999999999875182 -0.5 0  -0.05999999999877947 -0.5 0  -0.06999999999880724 -0.5 0  -0.079999999998835 -0.5 0  -0.08999999999886266 -0.5 0  -0.09999999999889042 -0.5 0  -0.1099999999989182 -0.5 0  -0.1199999999989459 -0.5 0  -0.1299999999989737 -0.5 0  -0.1399999999990014 -0.5 0  -0.1499999999990291 -0.5 0  -0.1599999999990568 -0.5 0  -0.1699999999990847 -0.5 0  -0.1799999999991124 -0.5 0  -0.1899999999991401 -0.5 0  -0.1999999999991678 -0.5 0  -0.2099999999991955 -0.5 0  -0.2199999999992234 -0.5 0  -0.2299999999992511 -0.5 0  -0.2399999999992788 -0.5 0  -0.2499999999993066 -0.5 0  -0.2599999999993342 -0.5 0  -0.269999999999362 -0.5 0  -0.2799999999993897 -0.5 0  -0.2899999999994175 -0.5 0  -0.2999999999994452 -0.5 0  -0.3099999999994729 -0.5 0  -0.3199999999995007 -0.5 0  -0.3299999999995284 -0.5 0  -0.3399999999995562 -0.5 0  -0.3499999999995839 -0.5 0  -0.3599999999996116 -0.5 0  -0.3699999999996393 -0.5 0  -0.379999999999667 -0.5 0  -0.3899999999996949 -0.5 0  -0.3999999999997226 -0.5 0  -0.4099999999997503 -0.5 0  -0.419999999999778 -0.5 0  -0.4299999999998058 -0.5 0  -0.4399999999998336 -0.5 0  -0.4499999999998613 -0.5 0  -0.4599999999998891 -0.5 0  -0.4699999999999167 -0.5 0  -0.4799999999999445 -0.5 0  -0.4899999999999722 -0.5 0  -0.5 -0.4900000000000277 0  -0.5 -0.4800000000000555 0  -0.5 -0.4700000000000832 0  -0.5 -0.4600000000001109 0  -0.5 -0.4500000000001387 0  -0.5 -0.4400000000001664 0  -0.5 -0.4300000000001942 0  -0.5 -0.4200000000002219 0  -0.5 -0.4100000000002497 0  -0.5 -0.4000000000002774 0  -0.5 -0.3900000000003052 0  -0.5 -0.3800000000003328 0  -0.5 -0.3700000000003606 0  -0.5 -0.3600000000003883 0  -0.5 -0.3500000000004161 0  -0.5 -0.3400000000004438 0  -0.5 -0.3300000000004716 0  -0.5 -0.3200000000004993 0  -0.5 -0.3100000000005271 0  -0.5 -0.3000000000005548 0  -0.5 -0.2900000000005825 0  -0.5 -0.2800000000006103 0  -0.5 -0.2700000000006381 0  -0.5 -0.2600000000006658 0  -0.5 -0.2500000000006935 0  -0.5 -0.2400000000007212 0  -0.5 -0.230000000000749 0  -0.5 -0.2200000000007767 0  -0.5 -0.2100000000008044 0  -0.5 -0.2000000000008322 0  -0.5 -0.19000000000086 0  -0.5 -0.1800000000008877 0  -0.5 -0.1700000000009154 0  -0.5 -0.1600000000009431 0  -0.5 -0.1500000000009709 0  -0.5 -0.1400000000009986 0  -0.5 -0.1300000000010264 0  -0.5 -0.1200000000010541 0  -0.5 -0.1100000000010818 0  -0.5 -0.1000000000011096 0  -0.5 -0.09000000000113734 0  -0.5 -0.08000000000116503 0  -0.5 -0.07000000000119283 0  -0.5 -0.06000000000122058 0  -0.5 -0.05000000000124827 0  -0.5 -0.04000000000127607 0  -0.5 -0.03000000000130376 0  -0.5 -0.02000000000133151 0  -0.5 -0.01000000000135925 0  -0.5 -1.376121439022882e-12 0  -0.5 0.009999999998640763 0  -0.5 0.01999999999866864 0  -0.5 0.02999999999869629 0  -0.5 0.03999999999872406 0  -0.5 0.04999999999875182 0  -0.5 0.05999999999877947 0  -0.5 0.06999999999880724 0  -0.5 0.079999999998835 0  -0.5 0.08999999999886266 0  -0.5 0.09999999999889042
[...]
<PointData  Vectors="f_27-0"> 
<DataArray  type="Float64"  Name="f_27-0"  NumberOfComponents="3" format="ascii">8.7284288070357591e-04 4.5034947222866800e-02 0.0000000000000000e+00  -1.2458187164190171e-03 4.4946108675767441e-02 0.0000000000000000e+00  1.2129182920268144e-04 4.0431255953845592e-02 0.0000000000000000e+00  5.2394868401615896e-05 4.0377392112164755e-02 0.0000000000000000e+00  -1.5277201902581634e-03 6.3804813050526649e-03 0.0000000000000000e+00  1.5067759237873094e-03 6.3627699111232991e-03 0.0000000000000000e+00  -1.1638795231471129e-03 6.3907343693719405e-03 0.0000000000000000e+00  1.2111078860478021e-03 6.3100864088111259e-03 0.0000000000000000e+00  1.9798372075085467e-03 4.4382022201824294e-02 0.0000000000000000e+00  3.0504240221314715e-03 4.3662439328511521e-02 0.0000000000000000e+00  4.0798425816713025e-03 4.2880037653338858e-02 0.0000000000000000e+00  5.0653204690985160e-03 4.2038052984611086e-02 0.0000000000000000e+00  6.0022055105867916e-03 4.1141442359394514e-02 0.0000000000000000e+00  6.8886021330050390e-03 4.0193605881129024e-02 0.0000000000000000e+00  7.7204349203579478e-03 3.9200758178387793e-02 0.0000000000000000e+00  8.4965853076540906e-03 3.8166850392370777e-02 0.0000000000000000e+00  9.2145060288066436e-03 3.7096980166202748e-02 0.0000000000000000e+00  9.8717548269214844e-03 3.5996916828255121e-02 0.0000000000000000e+00  1.0468662354004924e-02 3.4871750396951944e-02 0.0000000000000000e+00  1.1004151664066555e-02 3.3726076458251909e-02 0.0000000000000000e+00  1.1477778659503795e-02 3.2565726352957042e-02 0.0000000000000000e+00  1.1890217506254557e-02 3.1394431826435490e-02 0.0000000000000000e+00  1.2240563096415951e-02 3.0219196116400542e-02 0.0000000000000000e+00  1.2530961384883611e-02 2.9043048537068725e-02 0.0000000000000000e+00  1.2762156765008659e-02 2.7870300712564525e-02 0.0000000000000000e+00  1.2934973567136901e-02 2.6706350437834422e-02 0.0000000000000000e+00  1.3051505718890237e-02 2.5555003462373091e-02 0.0000000000000000e+00  1.3113694179459283e-02 2.4418865131619422e-02 0.0000000000000000e+00  1.3122946991564082e-02 2.3302195431639305e-02 0.0000000000000000e+00  1.3081860143276582e-02 2.2207429718945636e-02 0.0000000000000000e+00  1.2992553346202841e-02 2.1137346044203628e-02 0.0000000000000000e+00  1.2856863912926243e-02 2.0096051337563776e-02 0.0000000000000000e+00  1.2677463838866414e-02 1.9084348237513243e-02 0.0000000000000000e+00  1.2456975424362457e-02 1.8104566051489419e-02 0.0000000000000000e+00  1.2197290468996038e-02 1.7158484439778826e-02 0.0000000000000000e+00  1.1900846952746945e-02 1.6248355678366702e-02 0.0000000000000000e+00  1.1570322005422025e-02 1.5373883947898992e-02 0.0000000000000000e+00  1.1207892184586220e-02 1.4537302623155179e-02 0.0000000000000000e+00  1.0815566221281424e-02 1.3739423057496352e-02 0.0000000000000000e+00  1.0395707374948980e-02 1.2980984873044471e-02 0.0000000000000000e+00  9.9503749949311441e-03 1.2263009141518873e-02 0.0000000000000000e+00  9.4817153642995644e-03 1.1585167010118434e-02 0.0000000000000000e+00  8.9913522635308388e-03 1.0948000248420629e-02 0.0000000000000000e+00  8.4812943989512803e-03 1.0351266308222928e-02 0.0000000000000000e+00  7.9534979416408785e-03 9.7963648904338396e-03 0.0000000000000000e+00  7.4092792338562941e-03 9.2823912898284833e-03 0.0000000000000000e+00  6.8504961836002784e-03 8.8092333790485960e-03 0.0000000000000000e+00  6.2786243835648856e-03 8.3778304236505393e-03 0.0000000000000000e+00  5.6953398848740610e-03 7.9874359793811276e-03 0.0000000000000000e+00  5.1019357057142467e-03 7.6374196231122401e-03 0.0000000000000000e+00  4.4992895495720112e-03 7.3291149661739701e-03 0.0000000000000000e+00  3.8889340960989427e-03 7.0612589720428949e-03 0.0000000000000000e+00  3.2719853538218193e-03 6.8340885222242589e-03 0.0000000000000000e+00  2.6494667392999317e-03 6.6471637741900161e-03 0.0000000000000000e+00  2.0229901644721131e-03 6.5011128805577897e-03 0.0000000000000000e+00  1.3931146903093127e-03 6.3951200235548480e-03 0.0000000000000000e+00  7.6138526699943000e-04 6.3290621324134291e-03 0.0000000000000000e+00  1.2813580993390844e-04 6.3036939372335329e-03 0.0000000000000000e+00  -5.0524128766823106e-04 6.3184447019762457e-03 0.0000000000000000e+00  -1.1374866788002385e-03 6.3726535392458553e-03 0.0000000000000000e+00  -1.7679423065749893e-03 6.4669928384510971e-03 0.0000000000000000e+00  -2.3953196985878546e-03 6.6019668954714278e-03 0.0000000000000000e+00  -3.0188673376553153e-03 6.7776174626594885e-03 0.0000000000000000e+00  -3.6372037761736153e-03 6.9934125419908264e-03 0.0000000000000000e+00  -4.2493724995732191e-03 7.2497772461173494e-03 0.0000000000000000e+00  -4.8540648285573685e-03 7.5466094821726873e-03 0.0000000000000000e+00  -5.4503717893718030e-03 7.8844409016984359e-03 0.0000000000000000e+00  -6.0368791746932930e-03 8.2626378916961941e-03 0.0000000000000000e+00  -6.6119929247076391e-03 8.6825246009825750e-03 0.0000000000000000e+00  -7.1748877205770724e-03 9.1429910615956605e-03 0.0000000000000000e+00  -7.7234678267459524e-03 9.6444578351699249e-03 0.0000000000000000e+00  -8.2564752684980060e-03 1.0187037705240371e-02 0.0000000000000000e+00  -8.7723739039564722e-03 1.0770490156217923e-02 0.0000000000000000e+00  -9.2690874076985195e-03 1.1394711721888603e-02 0.0000000000000000e+00  -9.7453885483233995e-03 1.2059916377334995e-02 0.0000000000000000e+00  -1.0198481367195695e-02 1.2765752086802083e-02 0.0000000000000000e+00  -1.0627525780088541e-02 1.3511312421113354e-02 0.0000000000000000e+00  -1.1029325799232973e-02 1.4296575340266704e-02 0.0000000000000000e+00  -1.1402492860570303e-02 1.5121354068250438e-02 0.0000000000000000e+00  -1.1744887268712107e-02 1.5982999748663577e-02 0.0000000000000000e+00  -1.2053895151918998e-02 1.6881155921344673e-02 0.0000000000000000e+00  -1.2327588205281667e-02 1.7815871793458674e-02 0.0000000000000000e+00  -1.2563004950901700e-02 1.8784879461593809e-02 0.0000000000000000e+00  -1.2758888165287963e-02 1.9786449822188742e-02 0.0000000000000000e+00  -1.2911347309474295e-02 2.0819346692208147e-02 0.0000000000000000e+00  -1.3019279058542355e-02 2.1879577121467954e-02 0.0000000000000000e+00  -1.3079821179013254e-02 2.2966750001689719e-02 0.0000000000000000e+00  -1.3090692491690960e-02 2.4077446076136995e-02 0.0000000000000000e+00  -1.3050024188598281e-02 2.5208584016776010e-02 0.0000000000000000e+00  -1.2955417760966247e-02 2.6356697036885604e-02 0.0000000000000000e+00  -1.2805390204666815e-02 2.7518648431848144e-02 0.0000000000000000e+00  -1.2597452173049428e-02 2.8691377968622558e-02 0.0000000000000000e+00  -1.2331306950731133e-02 2.9868648404708487e-02 0.0000000000000000e+00  -1.2005073999661319e-02 3.1047680252203468e-02 0.0000000000000000e+00  -1.1617413105299835e-02 3.2224162650687463e-02 0.0000000000000000e+00  -1.1168109069385446e-02 3.3392515066290214e-02 0.0000000000000000e+00  -1.0656886089127853e-02 3.4547805162488510e-02 0.0000000000000000e+00  -1.0083881330730142e-02 3.5684835080597561e-02 0.0000000000000000e+00  -9.4494617528546494e-03 3.6798668804019746e-02 0.0000000000000000e+00  -8.7536231657998932e-03 3.7884905469301441e-02 0.0000000000000000e+00  -7.9987049575130902e-03 3.8937111925827994e-02 0.0000000000000000e+00  -7.1861516934573011e-03 3.9950572178154356e-02 0.0000000000000000e+00  -6.3174889301621318e-03 4.0920767858705326e-02 0.0000000000000000e+00  -5.3967797258989737e-03 4.1840940683743298e-02 0.0000000000000000e+00  -4.4251057275496485e-03 4.2708305784816263e-02 0.0000000000000000e+00  -3.4067891809481223e-03 4.3517374895552519e-02 0.0000000000000000e+00  -2.3457840384260779e-03 4.4264426528299546e-02 0.0000000000000000e+00  -1.4950102221088907e-03 4.6091423005585296e-02 0.0000000000000000e+00  -1.7617614153614403e-03 4.7292023150891663e-02 0.0000000000000000e+00  -2.0456533320785493e-03 4.8553849890730617e-02 0.0000000000000000e+00  -2.3485121348442574e-03 4.9878439640360143e-02 0.0000000000000000e+00  -2.6713044266592320e-03 5.1271981089753962e-02 0.0000000000000000e+00  -3.0170055446462089e-03 5.2736837097555160e-02 0.0000000000000000e+00  -3.3813797869858553e-03 5.4278156347757608e-02 0.0000000000000000e+00  -3.7714672111870831e-03 5.5901971099365531e-02 0.0000000000000000e+00  -4.1878077888218932e-03 5.7612466411412926e-02 0.0000000000000000e+00  -4.6288151846037079e-03 5.9417206942753820e-02 0.0000000000000000e+00  -5.0982637523565109e-03 6.1321899984089670e-02 0.0000000000000000e+00  -5.5989008534143882e-03 6.3332341407771137e-02 0.0000000000000000e+00  -6.1323670129311272e-03 6.5458175364478108e-02 0.0000000000000000e+00  -6.7029642210387572e-03 6.7703604013338053e-02 0.0000000000000000e+00  -7.3097837350301689e-03 7.0080913224410374e-02 0.0000000000000000e+00  -7.9591618731902035e-03 7.2597828397526654e-02 0.0000000000000000e+00  -8.6563096737113775e-03 7.5260122426942064e-02 0.0000000000000000e+00  -9.3993687994425468e-03 7.8082369219196243e-02 0.0000000000000000e+00  -1.0195189664034187e-02 8.1070506296747405e-02 0.0000000000000000e+00  -1.1051348619353162e-02 8.4230671401007970e-02 0.0000000000000000e+00  -1.1966759536021287e-02 8.7575946145986447e-02 0.0000000000000000e+00  -1.2947187108240903e-02 9.1107950768327672e-02 0.0000000000000000e+00  -1.3990435054215270e-02 9.4830513585901124e-02 0.0000000000000000e+00  -1.5088989415007878e-02 9.8744122898430514e-02 0.0000000000000000e+00  -1.6225914326480555e-02 1.0284702916511682e-01 0.0000000000000000e+00  -1.7385330089065905e-02 1.0711359417767224e-01 0.0000000000000000e+00  -1.8509641890605524e-02 1.1152709260920315e-01 0.0000000000000000e+00  -1.9544331294416444e-02 1.1604425929971894e-01 0.0000000000000000e+00  -2.0357643135235019e-02 1.2059961462120758e-01 0.0000000000000000e+00  -2.0813148405816030e-02 1.2511987138169098e-01 0.0000000000000000e+00  -2.0689078931861015e-02 1.2949027766403620e-01 0.0000000000000000e+00  -1.9699977379031459e-02 1.3356366811055534e-01 0.0000000000000000e+00  -1.7482980363916954e-02 1.3714077684465392e-01 0.0000000000000000e+00  -1.3608644103448458e-02 1.4000153481551364e-01 0.0000000000000000e+00  -7.5752366458122986e-03 1.4185003312528913e-01 0.0000000000000000e+00  1.0800703273287787e-03 1.4241233034279702e-01 0.0000000000000000e+00  1.2644843592791720e-02 1.4131893109934041e-01 0.0000000000000000e+00  2.7072315773453724e-02 1.3837230613992674e-01 0.0000000000000000e+00  4.3544345625474004e-02 1.3323754316248435e-01 0.0000000000000000e+00  6.0167949614852959e-02 1.2604901191995010e-01 0.0000000000000000e+00  7.3804128991600992e-02 1.1663686075708790e-01 0.0000000000000000e+00  8.0347351357021465e-02 1.0529325736980243e-01 0.0000000000000000e+00  7.4577186291108363e-02 9.2471554294309075e-02 0.0000000000000000e+00  5.3187983094400516e-02 7.9658849513574395e-02 0.0000000000000000e+00  1.5296175012617487e-02 6.9626595752739884e-02 0.0000000000000000e+00  -3.1119597018985971e-02 6.6941544288608809e-02 0.0000000000000000e+00  -6.9316736957333966e-02 7.6200218201117428e-02 0.0000000000000000e+00  -8.4174152087350879e-02 9.6275871888635969e-02 0.0000000000000000e+00  -7.6154941389292935e-02 1.1987469864272193e-01 0.0000000000000000e+00  -5.9399943282434357e-02 1.3898346832087799e-01 0.0000000000000000e+00  -4.3956633145754397e-02 1.5181343036903056e-01 0.0000000000000000e+00  -3.1507754377207091e-02 1.5980482442306923e-01 0.0000000000000000e+00  -2.1513155780321331e-02 1.6430526931021422e-01 0.0000000000000000e+00  -1.3363139864489962e-02 1.6627216756759497e-01 0.0000000000000000e+00  -6.7352509650780937e-03 1.6633738907624579e-01 0.0000000000000000e+00  -1.3277791010124303e-03 1.6494641577951630e-01 0.0000000000000000e+00  3.0162225940316145e-03 1.6245644572527818e-01 0.0000000000000000e+00  6.4491311687028454e-03 1.5911772294480714e-01 0.0000000000000000e+00  9.0947068229682310e-03 1.5516112631320109e-01 0.0000000000000000e+00  1.1069012372379353e-02 1.5075750621209502e-01 0.0000000000000000e+00  1.2474346668337884e-02 1.4605263752072864e-01 0.0000000000000000e+00  1.3406534729956470e-02 1.4116384869190976e-01 0.0000000000000000e+00  1.3950322623804927e-02 1.3619286247869833e-01 0.0000000000000000e+00  1.4182206171848698e-02 1.3121293418888114e-01 0.0000000000000000e+00  1.4167857721587915e-02 1.2628725081698663e-01 0.0000000000000000e+00  1.3964313268666793e-02 1.2145756877512241e-01 0.0000000000000000e+00  1.3618180018026163e-02 1.1676434867379124e-01 0.0000000000000000e+00  1.3175155381837432e-02 1.1221677894652826e-01 0.0000000000000000e+00  1.2660716417129726e-02 1.0784912458047932e-01 0.0000000000000000e+00  1.2102878684415789e-02 1.0365596296554135e-01 0.0000000000000000e+00  1.1515523041030238e-02 9.9650158977218059e-02 0.0000000000000000e+00  1.0911902056663585e-02 9.5832259826636998e-02 0.0000000000000000e+00  1.0304207792563018e-02 9.2203006024164175e-02 0.0000000000000000e+00  9.7045622226873251e-03 8.8750905753134685e-02 0.0000000000000000e+00  9.1176230059879307e-03 8.5470046532742414e-02 0.0000000000000000e+00  8.5424261098024264e-03 8.2362698266040257e-02 0.0000000000000000e+00  7.9880903858940127e-03 7.9410157101874643e-02 0.0000000000000000e+00  7.4462045928486353e-03 7.6613308229756830e-02 0.0000000000000000e+00  6.9260754879544219e-03 7.3958778266025496e-02 0.0000000000000000e+00  6.4261842608660663e-03 7.1442050025617654e-02 0.0000000000000000e+00  5.9451754507899085e-03 6.9054688746445089e-02 0.0000000000000000e+00  5.4841795385520377e-03 6.6787936484754201e-02 0.0000000000000000e+00  5.0430751956263720e-03 6.4637484020109243e-02 0.0000000000000000e+00  4.6216601577397957e-03 6.2593081435490971e-02 0.0000000000000000e+00  4.2169124916897416e-03 6.0652348500860438e-02 0.0000000000000000e+00  3.8314302288016289e-03 5.8805751993824831e-02 0.0000000000000000e+00  3.4652568304748433e-03 5.7050017160298304e-02 0.0000000000000000e+00  3.1159825933273250e-03 5.5378287098390384e-02 0.0000000000000000e+00  2.7832849208072664e-03 5.3787486318834052e-02 0.0000000000000000e+00  2.4660101855505227e-03 5.2271154323249198e-02 0.0000000000000000e+00  2.1656868333243522e-03 5.0826459601360729e-02 0.0000000000000000e+00  1.8820115995158014e-03 4.9447737247467247e-02 0.0000000000000000e+00  1.6133790453984472e-03 4.8132965513888105e-02 0.0000000000000000e+00  1.3590899137830344e-03 4.6877870967303170e-02 0.0000000000000000e+00  1.1198139318645713e-03 4.5679036346571875e-02 0.0000000000000000e+00  8.9324852161601419e-04 4.4534092272884539e-02 0.0000000000000000e+00  6.8026939232124608e-04 4.3438820310174819e-02 0.0000000000000000e+00  4.8131975290732591e-04 4.2391202932492787e-02 0.0000000000000000e+00  2.9508291282422371e-04 4.1389504270066359e-02 0.0000000000000000e+00  1.0443880106076988e-03 3.9875207971558919e-02 0.0000000000000000e+00  1.9376059706675624e-03 3.9266142777181483e-02 0.0000000000000000e+00  2.7986628044835691e-03 3.8606352888261024e-02 0.0000000000000000e+00  3.6240213265472197e-03 3.7899451510223510e-02 0.0000000000000000e+00  4.4117713452077037e-03 3.7147836297851157e-02 0.0000000000000000e+00  5.1588834432399287e-03 3.6356022670837429e-02 0.0000000000000000e+00  5.8638249758963630e-03 3.5526363700303334e-02 0.0000000000000000e+00  6.5242232243773709e-03 3.4663469117734991e-02 0.0000000000000000e+00  7.1383976842214298e-03 3.3770709907639009e-02 0.0000000000000000e+00  7.7060431246844165e-03 3.2851010460657311e-02 0.0000000000000000e+00  8.2253596540202336e-03 3.1909046388017316e-02 0.0000000000000000e+00  8.6957283315772342e-03 3.0949664403795752e-02 0.0000000000000000e+00  9.1165896275745319e-03 2.9975655234672556e-02 0.0000000000000000e+00  9.4874390657995467e-03 2.8991617045173185e-02 0.0000000000000000e+00  9.8094992298936659e-03 2.7999912592562879e-02 0.0000000000000000e+00  1.0082281792959608e-02 2.7005506869407097e-02 0.0000000000000000e+00  1.0306356024710786e-02 2.6011964548640552e-02 0.0000000000000000e+00  1.0482918512882395e-02 2.5022370928545614e-02 0.0000000000000000e+00  1.0612564089235919e-02 2.4039619474256122e-02 0.0000000000000000e+00  1.0696434426835860e-02 2.3067624614081704e-02 0.0000000000000000e+00  1.0735987653074755e-02 2.2108776141553148e-02 0.0000000000000000e+00  1.0732440985686469e-02 2.1166337966097425e-02 0.0000000000000000e+00  1.0687168247497667e-02 2.0242871011991802e-02 0.0000000000000000e+00  1.0602382693350501e-02 1.9339660900560947e-02 0.0000000000000000e+00  1.0479286859933348e-02 1.8459750943627905e-02 0.0000000000000000e+00  1.0319580685201703e-02 1.7604942907755945e-02 0.0000000000000000e+00  1.0125246972610904e-02 1.6777153508257071e-02 0.0000000000000000e+00  9.8981102986511506e-03 1.5977103920829815e-02 0.0000000000000000e+00  9.6398557208003874e-03 1.5207601418571498e-02 0.0000000000000000e+00  9.3521729975363753e-03 1.4469143667222534e-02 0.0000000000000000e+00  9.0372036858664424e-03 1.3762788520981470e-02 0.0000000000000000e+00  8.6965305287465128e-03 1.3089505422331768e-02 0.0000000000000000e+00  8.3320000251844353e-03 1.2449980484929091e-02 0.0000000000000000e+00  7.9450672033112481e-03 1.1845429255379314e-02 0.0000000000000000e+00  7.5376217341250771e-03 1.1275868992499615e-02 0.0000000000000000e+00  7.1113814306356486e-03 1.0742462127911327e-02 0.0000000000000000e+00  6.6674929979294037e-03 1.0244848261057130e-02 0.0000000000000000e+00  6.2078267685967692e-03 9.7837644167078595e-03 0.0000000000000000e+00  5.7335903814762518e-03 9.3591942911185853e-03 0.0000000000000000e+00  5.2466956505342732e-03 8.9711285225217083e-03 0.0000000000000000e+00  4.7482646233312567e-03 8.6205931782236261e-03 0.0000000000000000e+00  4.2394988947068489e-03 8.3080143433927681e-03 0.0000000000000000e+00  3.7217715398345751e-03 8.0318445884521427e-03 0.0000000000000000e+00  3.1960987382284364e-03 7.7930231988438238e-03 0.0000000000000000e+00  2.6638017488402783e-03 7.5914338454116763e-03 0.0000000000000000e+00  2.1262377814030638e-03 7.4271051417283095e-03 0.0000000000000000e+00  1.5842725094939844e-03 7.2995999928612181e-03 0.0000000000000000e+00  1.0395711150623748e-03 7.2098112139836433e-03 0.0000000000000000e+00  4.9269673595588091e-04 7.1578413938801428e-03 0.0000000000000000e+00  -5.5058931866267507e-05 7.1427729486338793e-03 0.0000000000000000e+00  -6.0273727271084468e-04 7.1646396352914674e-03 0.0000000000000000e+00  -1.1491691945462906e-03 7.2241455616026649e-03 0.0000000000000000e+00  -1.6929295432923730e-03 7.3212268730809653e-03 0.0000000000000000e+00  -2.2331788425431669e-03 7.4555192098834369e-03 0.0000000000000000e+00  -2.7688148872203901e-03 7.6268334480419859e-03 0.0000000000000000e+00  -3.2989694919510672e-03 7.8352516053356667e-03 0.0000000000000000e+00  -3.8219412742742536e-03 8.0806023413690295e-03 0.0000000000000000e+00  -4.3368831627093301e-03 8.3635564382978107e-03 0.0000000000000000e+00  -4.8423402409935737e-03 8.6836251924163853e-03 0.0000000000000000e+00  -5.3370293908411156e-03 9.0410439290518497e-03 0.0000000000000000e+00  -5.8198827397849999e-03 9.4346328279070260e-03 0.0000000000000000e+00  -6.2890988766702493e-03 9.8654029997691968e-03 0.0000000000000000e+00  -6.7438655632042410e-03 1.0332538407017387e-02 0.0000000000000000e+00  -7.1822657919769061e-03 1.0835824352216269e-02 0.0000000000000000e+00  -7.6027836507203033e-03 1.1375194255658302e-02 0.0000000000000000e+00  -8.0040298641591446e-03 1.1950142832341963e-02 0.0000000000000000e+00  -8.3840300965512798e-03 1.2559840397701187e-02 0.0000000000000000e+00  -8.7417787408030478e-03 1.3203468308268051e-02 0.0000000000000000e+00  -9.0747279279107251e-03 1.3880891147885913e-02 0.0000000000000000e+00  -9.3820791849510629e-03 1.4590859455600026e-02 0.0000000000000000e+00  -9.6614921240780176e-03 1.5332274558003841e-02 0.0000000000000000e+00  -9.9110813425488387e-03 1.6104997515237945e-02 0.0000000000000000e+00  -1.0129336309107366e-02 1.6907347675042639e-02 0.0000000000000000e+00  -1.0314529043686323e-02 1.7736865058631455e-02 0.0000000000000000e+00  -1.0465013624016396e-02 1.8593001219163324e-02 0.0000000000000000e+00  -1.0578370420787884e-02 1.9473594138204691e-02 0.0000000000000000e+00  -1.0653921509280202e-02