<?xml version="1.0"?>
<VTKFile type="UnstructuredGrid"  version="0.1"  >
<UnstructuredGrid>
<Piece  NumberOfPoints="16275" NumberOfCells="32468">
<Points>
<DataArray  type="Float64"  NumberOfComponents="3"  format="ascii">-0.5 0.5 0  0.5 0.5 0  0.5 -0.5 0  -0.5 -0.5 0  -1 1 0  1 1 0  1 -1 0  -1 -1 0  -0.4900000000000277 0.5 0  -0.4800000000000555 0.5 0  -0.4700000000000832 0.5 0  -0.4600000000001109 0.5 0  -0.4500000000001387 0.5 0  -0.4400000000001664 0.5 0  -0.4300000000001942 0.5 0  -0.4200000000002219 0.5 0  -0.4100000000002497 0.5 0  -0.4000000000002774 0.5 0  -0.3900000000003052 0.5 0  -0.3800000000003328 0.5 0  -0.3700000000003606 0.5 0  -0.3600000000003883 0.5 0  -0.3500000000004161 0.5 0  -0.3400000000004438 0.5 0  -0.3300000000004716 0.5 0  -0.3200000000004993 0.5 0  -0.3100000000005271 0.5 0  -0.3000000000005548 0.5 0  -0.2900000000005825 0.5 0  -0.2800000000006103 0.5 0  -0.2700000000006381 0.5 0  -0.2600000000006658 0.5 0  -0.2500000000006935 0.5 0  -0.2400000000007212 0.5 0  -0.230000000000749 0.5 0  -0.2200000000007767 0.5 0  -0.2100000000008044 0.5 0  -0.2000000000008322 0.5 0  -0.19000000000086 0.5 0  -0.1800000000008877 0.5 0  -0.1700000000009154 0.5 0  -0.1600000000009431 0.5 0  -0.1500000000009709 0.5 0  -0.1400000000009986 0.5 0  -0.1300000000010264 0.5 0  -0.1200000000010541 0.5 0  -0.1100000000010818 0.5 0  -0.1000000000011096 0.5 0  -0.09000000000113734 0.5 0  -0.08000000000116503 0.5 0  -0.07000000000119283 0.5 0  -0.06000000000122058 0.5 0  -0.05000000000124827 0.5 0  -0.04000000000127607 0.5 0  -0.03000000000130376 0.5 0  -0.02000000000133151 0.5 0  -0.01000000000135925 0.5 0  -1.376121439022882e-12 0.5 0  0.009999999998640763 0.5 0  0.01999999999866864 0.5 0  0.02999999999869629 0.5 0  0.03999999999872406 0.5 0  0.04999999999875182 0.5 0  0.05999999999877947 0.5 0  0.06999999999880724 0.5 0  0.079999999998835 0.5 0  0.08999999999886266 0.5 0  0.09999999999889042 0.5 0  0.1099999999989182 0.5 0  0.1199999999989459 0.5 0  0.1299999999989737 0.5 0  0.1399999999990014 0.5 0  0.1499999999990291 0.5 0  0.1599999999990568 0.5 0  0.1699999999990847 0.5 0  0.1799999999991124 0.5 0  0.1899999999991401 0.5 0  0.1999999999991678 0.5 0  0.2099999999991955 0.5 0  0.2199999999992234 0.5 0  0.2299999999992511 0.5 0  0.2399999999992788 0.5 0  0.2499999999993066 0.5 0  0.2599999999993342 0.5 0  0.269999999999362 0.5 0  0.2799999999993897 0.5 0  0.2899999999994175 0.5 0  0.2999999999994452 0.5 0  0.3099999999994729 0.5 0  0.3199999999995007 0.5 0  0.3299999999995284 0.5 0  0.3399999999995562 0.5 0  0.3499999999995839 0.5 0  0.3599999999996116 0.5 0  0.3699999999996393 0.5 0  0.379999999999667 0.5 0  0.3899999999996949 0.5 0  0.3999999999997226 0.5 0  0.4099999999997503 0.5 0  0.419999999999778 0.5 0  0.4299999999998058 0.5 0  0.4399999999998336 0.5 0  0.4499999999998613 0.5 0  0.4599999999998891 0.5 0  0.4699999999999167 0.5 0  0.4799999999999445 0.5 0  0.4899999999999722 0.5 0  0.5 0.4900000000000277 0  0.5 0.4800000000000555 0  0.5 0.4700000000000832 0  0.5 0.4600000000001109 0  0.5 0.4500000000001387 0  0.5 0.4400000000001664 0  0.5 0.4300000000001942 0  0.5 0.4200000000002219 0  0.5 0.4100000000002497 0  0.5 0.4000000000002774 0  0.5 0.3900000000003052 0  0.5 0.3800000000003328 0  0.5 0.3700000000003606 0  0.5 0.3600000000003883 0  0.5 0.3500000000004161 0  0.5 0.3400000000004438 0  0.5 0.3300000000004716 0  0.5 0.3200000000004993 0  0.5 0.3100000000005271 0  0.5 0.3000000000005548 0  0.5 0.2900000000005825 0  0.5 0.2800000000006103 0  0.5 0.2700000000006381 0  0.5 0.2600000000006658 0  0.5 0.2500000000006935 0  0.5 0.2400000000007212 0  0.5 0.230000000000749 0  0.5 0.2200000000007767 0  0.5 0.2100000000008044 0  0.5 0.2000000000008322 0  0.5 0.19000000000086 0  0.5 0.1800000000008877 0  0.5 0.1700000000009154 0  0.5 0.1600000000009431 0  0.5 0.1500000000009709 0  0.5 0.1400000000009986 0  0.5 0.1300000000010264 0  0.5 0.1200000000010541 0  0.5 0.1100000000010818 0  0.5 0.1000000000011096 0  0.5 0.09000000000113734 0  0.5 0.08000000000116503 0  0.5 0.07000000000119283 0  0.5 0.06000000000122058 0  0.5 0.05000000000124827 0  0.5 0.04000000000127607 0  0.5 0.03000000000130376 0  0.5 0.02000000000133151 0  0.5 0.01000000000135925 0  0.5 1.376121439022882e-12 0  0.5 -0.009999999998640763 0  0.5 -0.01999999999866864 0  0.5 -0.02999999999869629 0  0.5 -0.03999999999872406 0  0.5 -0.04999999999875182 0  0.5 -0.05999999999877947 0  0.5 -0.06999999999880724 0  0.5 -0.079999999998835 0  0.5 -0.08999999999886266 0  0.5 -0.09999999999889042 0  0.5 -0.1099999999989182 0  0.5 -0.1199999999989459 0  0.5 -0.1299999999989737 0  0.5 -0.1399999999990014 0  0.5 -0.1499999999990291 0  0.5 -0.1599999999990568 0  0.5 -0.1699999999990847 0  0.5 -0.1799999999991124 0  0.5 -0.1899999999991401 0  0.5 -0.1999999999991678 0  0.5 -0.2099999999991955 0  0.5 -0.2199999999992234 0  0.5 -0.2299999999992511 0  0.5 -0.2399999999992788 0  0.5 -0.2499999999993066 0  0.5 -0.2599999999993342 0  0.5 -0.269999999999362 0  0.5 -0.2799999999993897 0  0.5 -0.2899999999994175 0  0.5 -0.2999999999994452 0  0.5 -0.3099999999994729 0  0.5 -0.3199999999995007 0  0.5 -0.3299999999995284 0  0.5 -0.3399999999995562 0  0.5 -0.3499999999995839 0  0.5 -0.3599999999996116 0  0.5 -0.3699999999996393 0  0.5 -0.379999999999667 0  0.5 -0.3899999999996949 0  0.5 -0.3999999999997226 0  0.5 -0.4099999999997503 0  0.5 -0.419999999999778 0  0.5 -0.4299999999998058 0  0.5 -0.4399999999998336 0  0.5 -0.4499999999998613 0  0.5 -0.4599999999998891 0  0.5 -0.4699999999999167 0  0.5 -0.4799999999999445 0  0.5 -0.4899999999999722 0  0.4900000000000277 -0.5 0  0.4800000000000555 -0.5 0  0.4700000000000832 -0.5 0  0.4600000000001109 -0.5 0  0.4500000000001387 -0.5 0  0.4400000000001664 -0.5 0  0.4300000000001942 -0.5 0  0.4200000000002219 -0.5 0  0.4100000000002497 -0.5 0  0.4000000000002774 -0.5 0  0.3900000000003052 -0.5 0  0.3800000000003328 -0.5 0  0.3700000000003606 -0.5 0  0.3600000000003883 -0.5 0  0.3500000000004161 -0.5 0  0.3400000000004438 -0.5 0  0.3300000000004716 -0.5 0  0.3200000000004993 -0.5 0  0.3100000000005271 -0.5 0  0.3000000000005548 -0.5 0  0.2900000000005825 -0.5 0  0.2800000000006103 -0.5 0  0.2700000000006381 -0.5 0  0.2600000000006658 -0.5 0  0.2500000000006935 -0.5 0  0.2400000000007212 -0.5 0  0.230000000000749 -0.5 0  0.2200000000007767 -0.5 0  0.2100000000008044 -0.5 0  0.2000000000008322 -0.5 0  0.19000000000086 -0.5 0  0.1800000000008877 -0.5 0  0.1700000000009154 -0.5 0  0.1600000000009431 -0.5 0  0.1500000000009709 -0.5 0  0.1400000000009986 -0.5 0  0.1300000000010264 -0.5 0  0.1200000000010541 -0.5 0  0.1100000000010818 -0.5 0  0.1000000000011096 -0.5 0  0.09000000000113734 -0.5 0  0.08000000000116503 -0.5 0  0.07000000000119283 -0.5 0  0.06000000000122058 -0.5 0  0.05000000000124827 -0.5 0  0.04000000000127607 -0.5 0  0.03000000000130376 -0.5 0  0.02000000000133151 -0.5 0  0.01000000000135925 -0.5 0  1.376121439022882e-12 -0.5 0  -0.009999999998640763 -0.5 0  -0.01999999999866864 -0.5 0  -0.02999999999869629 -0.5 0  -0.03999999999872406 -0.5 0  -0.04999999999875182 -0.5 0  -0.05999999999877947 -0.5 0  -0.06999999999880724 -0.5 0  -0.079999999998835 -0.5 0  -0.08999999999886266 -0.5 0  -0.09999999999889042 -0.5 0  -0.1099999999989182 -0.5 0  -0.1199999999989459 -0.5 0  -0.1299999999989737 -0.5 0  -0.1399999999990014 -0.5 0  -0.1499999999990291 -0.5 0  -0.1599999999990568 -0.5 0  -0.1699999999990847 -0.5 0  -0.1799999999991124 -0.5 0  -0.1899999999991401 -0.5 0  -0.1999999999991678 -0.5 0  -0.2099999999991955 -0.5 0  -0.2199999999992234 -0.5 0  -0.2299999999992511 -0.5 0  -0.2399999999992788 -0.5 0  -0.2499999999993066 -0.5 0  -0.2599999999993342 -0.5 0  -0.269999999999362 -0.5 0  -0.2799999999993897 -0.5 0  -0.2899999999994175 -0.5 0  -0.2999999999994452 -0.5 0  -0.3099999999994729 -0.5 0  -0.3199999999995007 -0.5 0  -0.3299999999995284 -0.5 0  -0.3399999999995562 -0.5 0  -0.3499999999995839 -0.5 0  -0.3599999999996116 -0.5 0  -0.3699999999996393 -0.5 0  -0.379999999999667 -0.5 0  -0.3899999999996949 -0.5 0  -0.3999999999997226 -0.5 0  -0.4099999999997503 -0.5 0  -0.419999999999778 -0.5 0  -0.4299999999998058 -0.5 0  -0.4399999999998336 -0.5 0  -0.4499999999998613 -0.5 0  -0.4599999999998891 -0.5 0  -0.4699999999999167 -0.5 0  -0.4799999999999445 -0.5 0  -0.4899999999999722 -0.5 0  -0.5 -0.4900000000000277 0  -0.5 -0.4800000000000555 0  -0.5 -0.4700000000000832 0  -0.5 -0.4600000000001109 0  -0.5 -0.4500000000001387 0  -0.5 -0.4400000000001664 0  -0.5 -0.4300000000001942 0  -0.5 -0.4200000000002219 0  -0.5 -0.4100000000002497 0  -0.5 -0.4000000000002774 0  -0.5 -0.3900000000003052 0  -0.5 -0.3800000000003328 0  -0.5 -0.3700000000003606 0  -0.5 -0.3600000000003883 0  -0.5 -0.3500000000004161 0  -0.5 -0.3400000000004438 0  -0.5 -0.3300000000004716 0  -0.5 -0.3200000000004993 0  -0.5 -0.3100000000005271 0  -0.5 -0.3000000000005548 0  -0.5 -0.2900000000005825 0  -0.5 -0.2800000000006103 0  -0.5 -0.2700000000006381 0  -0.5 -0.2600000000006658 0  -0.5 -0.2500000000006935 0  -0.5 -0.2400000000007212 0  -0.5 -0.230000000000749 0  -0.5 -0.2200000000007767 0  -0.5 -0.2100000000008044 0  -0.5 -0.2000000000008322 0  -0.5 -0.19000000000086 0  -0.5 -0.1800000000008877 0  -0.5 -0.1700000000009154 0  -0.5 -0.1600000000009431 0  -0.5 -0.1500000000009709 0  -0.5 -0.1400000000009986 0  -0.5 -0.1300000000010264 0  -0.5 -0.1200000000010541 0  -0.5 -0.1100000000010818 0  -0.5 -0.1000000000011096 0  -0.5 -0.09000000000113734 0  -0.5 -0.08000000000116503 0  -0.5 -0.07000000000119283 0  -0.5 -0.06000000000122058 0  -0.5 -0.05000000000124827 0  -0.5 -0.04000000000127607 0  -0.5 -0.03000000000130376 0  -0.5 -0.02000000000133151 0  -0.5 -0.01000000000135925 0  -0.5 -1.376121439022882e-12 0  -0.5 0.009999999998640763 0  -0.5 0.01999999999866864 0  -0.5 0.02999999999869629 0  -0.5 0.03999999999872406 0  -0.5 0.04999999999875182 0  -0.5 0.05999999999877947 0  -0.5 0.06999999999880724 0  -0.5 0.079999999998835 0  -0.5 0.08999999999886266 0  -0.5 0.09999999999889042
[...]
<PointData  Vectors="f_27-0"> 
<DataArray  type="Float64"  Name="f_27-0"  NumberOfComponents="3" format="ascii">1.3207478233810690e-03 4.7377229921722594e-02 0.0000000000000000e+00  -1.8292858579228698e-03 4.7171286924252480e-02 0.0000000000000000e+00  -2.6076981955124533e-04 3.8730879755091700e-02 0.0000000000000000e+00  3.8614575520124053e-04 3.8646121159917057e-02 0.0000000000000000e+00  -1.5663342976911633e-03 6.3384928090584438e-03 0.0000000000000000e+00  1.5384610054673940e-03 6.3330732587237410e-03 0.0000000000000000e+00  -8.8854102213867540e-04 6.1748874031370112e-03 0.0000000000000000e+00  8.8683912228547271e-04 6.1826688326833959e-03 0.0000000000000000e+00  2.5291722367797795e-03 4.6666709008565607e-02 0.0000000000000000e+00  3.6967557861815547e-03 4.5881234047077050e-02 0.0000000000000000e+00  4.8176981419031624e-03 4.5025458398548379e-02 0.0000000000000000e+00  5.8887735258006425e-03 4.4103214830996246e-02 0.0000000000000000e+00  6.9045337760959644e-03 4.3120497981298939e-02 0.0000000000000000e+00  7.8628422776514020e-03 4.2081235027822350e-02 0.0000000000000000e+00  8.7590469962301881e-03 4.0992884396989428e-02 0.0000000000000000e+00  9.5921039362093282e-03 3.9859791436483057e-02 0.0000000000000000e+00  1.0359327120609291e-02 3.8688207677647024e-02 0.0000000000000000e+00  1.1057965043958177e-02 3.7485191078230937e-02 0.0000000000000000e+00  1.1688610093785870e-02 3.6256325393164097e-02 0.0000000000000000e+00  1.2250313092650586e-02 3.5006670140643618e-02 0.0000000000000000e+00  1.2742916797600408e-02 3.3743023341113093e-02 0.0000000000000000e+00  1.3167479300044325e-02 3.2469689637405624e-02 0.0000000000000000e+00  1.3523193347848645e-02 3.1194632215454970e-02 0.0000000000000000e+00  1.3812816476857634e-02 2.9921027585556311e-02 0.0000000000000000e+00  1.4037427074127676e-02 2.8653737866022277e-02 0.0000000000000000e+00  1.4198228681161428e-02 2.7398648395568246e-02 0.0000000000000000e+00  1.4297897984550032e-02 2.6159810351251370e-02 0.0000000000000000e+00  1.4338787683005231e-02 2.4939957762390944e-02 0.0000000000000000e+00  1.4322749115713601e-02 2.3743718250592669e-02 0.0000000000000000e+00  1.4252869621787867e-02 2.2573504488672434e-02 0.0000000000000000e+00  1.4131690447083909e-02 2.1432132410245781e-02 0.0000000000000000e+00  1.3961461526574960e-02 2.0324080570048454e-02 0.0000000000000000e+00  1.3745234204998884e-02 1.9249774952914821e-02 0.0000000000000000e+00  1.3486042158622306e-02 1.8211607271282355e-02 0.0000000000000000e+00  1.3186082132737547e-02 1.7211184507807533e-02 0.0000000000000000e+00  1.2848157910881314e-02 1.6250896771297724e-02 0.0000000000000000e+00  1.2475178350964721e-02 1.5330067719947944e-02 0.0000000000000000e+00  1.2069621789301734e-02 1.4450748365539097e-02 0.0000000000000000e+00  1.1633668238517190e-02 1.3613762476591830e-02 0.0000000000000000e+00  1.1169842431303405e-02 1.2819650443524845e-02 0.0000000000000000e+00  1.0680456092813623e-02 1.2069173289564488e-02 0.0000000000000000e+00  1.0167789958796501e-02 1.1361752225946892e-02 0.0000000000000000e+00  9.6336111383991240e-03 1.0697904881694581e-02 0.0000000000000000e+00  9.0799683642944218e-03 1.0077265814849152e-02 0.0000000000000000e+00  8.5089231780034816e-03 9.5007869622957593e-03 0.0000000000000000e+00  7.9219164763357341e-03 8.9675981552657415e-03 0.0000000000000000e+00  7.3207903697577927e-03 8.4774837347447070e-03 0.0000000000000000e+00  6.7070088261585439e-03 8.0311946376390615e-03 0.0000000000000000e+00  6.0821667931670337e-03 7.6275966050104917e-03 0.0000000000000000e+00  5.4476550291580805e-03 7.2659700243147820e-03 0.0000000000000000e+00  4.8044575672392693e-03 6.9478788740957066e-03 0.0000000000000000e+00  4.1540176011316005e-03 6.6717855805918823e-03 0.0000000000000000e+00  3.4974233591542488e-03 6.4377420917142280e-03 0.0000000000000000e+00  2.8355961068288358e-03 6.2453181524626143e-03 0.0000000000000000e+00  2.1701467288061890e-03 6.0951020602183206e-03 0.0000000000000000e+00  1.5014789759938835e-03 5.9860617175104148e-03 0.0000000000000000e+00  8.3117259454724404e-04 5.9180190585698279e-03 0.0000000000000000e+00  1.5962340537292030e-04 5.8918192470032334e-03 0.0000000000000000e+00  -5.1192998263585685e-04 5.9070020905745485e-03 0.0000000000000000e+00  -1.1823743579615978e-03 5.9627443416561416e-03 0.0000000000000000e+00  -1.8511070460213652e-03 6.0596273634404684e-03 0.0000000000000000e+00  -2.5168283271482035e-03 6.1981999866418877e-03 0.0000000000000000e+00  -3.1787918794808157e-03 6.3786446400687187e-03 0.0000000000000000e+00  -3.8356737894131997e-03 6.6005590385534467e-03 0.0000000000000000e+00  -4.4866792210345912e-03 6.8643770603370466e-03 0.0000000000000000e+00  -5.1304887284462225e-03 7.1698595804978102e-03 0.0000000000000000e+00  -5.7661766239655819e-03 7.5176421154923827e-03 0.0000000000000000e+00  -6.3924000403661431e-03 7.9073460697181401e-03 0.0000000000000000e+00  -7.0076129573076488e-03 8.3404153511458384e-03 0.0000000000000000e+00  -7.6109705452843245e-03 8.8157529087354407e-03 0.0000000000000000e+00  -8.2003359054021452e-03 9.3339999506779781e-03 0.0000000000000000e+00  -8.7745452521598207e-03 9.8953450373534032e-03 0.0000000000000000e+00  -9.3319596406819336e-03 1.0499586136609880e-02 0.0000000000000000e+00  -9.8704398076731436e-03 1.1146863065360049e-02 0.0000000000000000e+00  -1.0388820263839209e-02 1.1837611301055378e-02 0.0000000000000000e+00  -1.0884089146412479e-02 1.2571646415771180e-02 0.0000000000000000e+00  -1.1355439303020562e-02 1.3348314950050176e-02 0.0000000000000000e+00  -1.1799490024103965e-02 1.4167483690823851e-02 0.0000000000000000e+00  -1.2214731006426300e-02 1.5029309850289760e-02 0.0000000000000000e+00  -1.2598775861617617e-02 1.5931302653373523e-02 0.0000000000000000e+00  -1.2948891555598490e-02 1.6873370233155442e-02 0.0000000000000000e+00  -1.3262960413760645e-02 1.7855587990334019e-02 0.0000000000000000e+00  -1.3537694984206964e-02 1.8875719164419800e-02 0.0000000000000000e+00  -1.3771513534695209e-02 1.9932346382365951e-02 0.0000000000000000e+00  -1.3960383917875307e-02 2.1024529659417843e-02 0.0000000000000000e+00  -1.4102810185817083e-02 2.2147991425149574e-02 0.0000000000000000e+00  -1.4195624515087253e-02 2.3302486624923208e-02 0.0000000000000000e+00  -1.4236038943277704e-02 2.4484675276542984e-02 0.0000000000000000e+00  -1.4221830306098793e-02 2.5691475032379257e-02 0.0000000000000000e+00  -1.4150161697119149e-02 2.6919286311282410e-02 0.0000000000000000e+00  -1.4019276060697540e-02 2.8164877753367578e-02 0.0000000000000000e+00  -1.3825919279035710e-02 2.9424910096512550e-02 0.0000000000000000e+00  -1.3569500120571128e-02 3.0692942750322742e-02 0.0000000000000000e+00  -1.3247674858581873e-02 3.1965901511933653e-02 0.0000000000000000e+00  -1.2858678712023086e-02 3.3239239838379994e-02 0.0000000000000000e+00  -1.2401820835561610e-02 3.4506536184971334e-02 0.0000000000000000e+00  -1.1876534449633824e-02 3.5762479893515026e-02 0.0000000000000000e+00  -1.1282483824436987e-02 3.7001255744114829e-02 0.0000000000000000e+00  -1.0619934828510397e-02 3.8217426625398246e-02 0.0000000000000000e+00  -9.8883751304303085e-03 3.9405846213690955e-02 0.0000000000000000e+00  -9.0902579424573856e-03 4.0559051817176728e-02 0.0000000000000000e+00  -8.2268225901915015e-03 4.1671406310740240e-02 0.0000000000000000e+00  -7.2994519993186116e-03 4.2737959356768586e-02 0.0000000000000000e+00  -6.3126743244978382e-03 4.3750639833950847e-02 0.0000000000000000e+00  -5.2675580677775521e-03 4.4706130099962604e-02 0.0000000000000000e+00  -4.1690178622995934e-03 4.5597854355354697e-02 0.0000000000000000e+00  -3.0215199026949291e-03 4.6420978536239110e-02 0.0000000000000000e+00  -2.1198808147767931e-03 4.8415336248827635e-02 0.0000000000000000e+00  -2.4317517855074913e-03 4.9722084741480370e-02 0.0000000000000000e+00  -2.7646496192315633e-03 5.1098107867210057e-02 0.0000000000000000e+00  -3.1211206574756705e-03 5.2545326538189573e-02 0.0000000000000000e+00  -3.5016585745949150e-03 5.4070766590775698e-02 0.0000000000000000e+00  -3.9106274435119753e-03 5.5677772421373617e-02 0.0000000000000000e+00  -4.3447551196609995e-03 5.7372507526663355e-02 0.0000000000000000e+00  -4.8124738806140811e-03 5.9161819346098890e-02 0.0000000000000000e+00  -5.3145594893140016e-03 6.1050429109543079e-02 0.0000000000000000e+00  -5.8499442530186496e-03 6.3047306428844666e-02 0.0000000000000000e+00  -6.4245109470773320e-03 6.5159299673053811e-02 0.0000000000000000e+00  -7.0435960841910830e-03 6.7392948542411055e-02 0.0000000000000000e+00  -7.7103127940156609e-03 6.9758903749487233e-02 0.0000000000000000e+00  -8.4315721789102252e-03 7.2260960698683249e-02 0.0000000000000000e+00  -9.2085567804074051e-03 7.4911997576122671e-02 0.0000000000000000e+00  -1.0049844978995066e-02 7.7719455180071603e-02 0.0000000000000000e+00  -1.0965479469081652e-02 8.0686519753798813e-02 0.0000000000000000e+00  -1.1955506631760411e-02 8.3826787040380504e-02 0.0000000000000000e+00  -1.3027967830655322e-02 8.7139387742403179e-02 0.0000000000000000e+00  -1.4189877023159193e-02 9.0622596310571360e-02 0.0000000000000000e+00  -1.5432190116759188e-02 9.4277725534836584e-02 0.0000000000000000e+00  -1.6748377062174941e-02 9.8087347130760116e-02 0.0000000000000000e+00  -1.8104059363955011e-02 1.0203139850304226e-01 0.0000000000000000e+00  -1.9445892132079201e-02 1.0607675600504725e-01 0.0000000000000000e+00  -2.0667842010056107e-02 1.1017249554737817e-01 0.0000000000000000e+00  -2.1619169605582834e-02 1.1424058221779165e-01 0.0000000000000000e+00  -2.2051328631230979e-02 1.1818672690244712e-01 0.0000000000000000e+00  -2.1644878573492572e-02 1.2189180995651565e-01 0.0000000000000000e+00  -1.9920419054978097e-02 1.2520199153030989e-01 0.0000000000000000e+00  -1.6357731593925680e-02 1.2795756426654456e-01 0.0000000000000000e+00  -1.0355511453579882e-02 1.2999109445451074e-01 0.0000000000000000e+00  -1.4345603321719459e-03 1.3116018666340243e-01 0.0000000000000000e+00  1.0526309332072730e-02 1.3131466087443674e-01 0.0000000000000000e+00  2.5109415726692046e-02 1.3044699830769849e-01 0.0000000000000000e+00  4.0999132389802809e-02 1.2842529780164660e-01 0.0000000000000000e+00  5.5984484975555769e-02 1.2522403891010603e-01 0.0000000000000000e+00  6.7189871825386993e-02 1.2052627786310129e-01 0.0000000000000000e+00  7.1030273400270544e-02 1.1432326327950580e-01 0.0000000000000000e+00  6.4095755723023701e-02 1.0649183153938685e-01 0.0000000000000000e+00  4.3724061378345787e-02 9.8560273581594804e-02 0.0000000000000000e+00  1.0759702393945268e-02 9.2841826100250630e-02 0.0000000000000000e+00  -2.7222277780375493e-02 9.2597687068136245e-02 0.0000000000000000e+00  -5.7148953039349221e-02 1.0102645052040399e-01 0.0000000000000000e+00  -6.8420499082861200e-02 1.1662842115957352e-01 0.0000000000000000e+00  -6.3182461052642261e-02 1.3461189003951918e-01 0.0000000000000000e+00  -5.1604646166311115e-02 1.4983757303718820e-01 0.0000000000000000e+00  -4.0618354279451506e-02 1.6019924043287409e-01 0.0000000000000000e+00  -3.1560831136141956e-02 1.6682711906554906e-01 0.0000000000000000e+00  -2.3964215823270144e-02 1.7060600520645680e-01 0.0000000000000000e+00  -1.7522874010746151e-02 1.7227982213333151e-01 0.0000000000000000e+00  -1.2022195290262777e-02 1.7233490814601096e-01 0.0000000000000000e+00  -7.3096800733011670e-03 1.7112750991890416e-01 0.0000000000000000e+00  -3.2952082106682992e-03 1.6893182728601883e-01 0.0000000000000000e+00  1.2392188303100979e-04 1.6594444754831436e-01 0.0000000000000000e+00  2.9746975090962865e-03 1.6233687552666171e-01 0.0000000000000000e+00  5.3325804868622007e-03 1.5825363454369298e-01 0.0000000000000000e+00  7.2320974940621096e-03 1.5382826998694285e-01 0.0000000000000000e+00  8.7205724898697344e-03 1.4916882348341962e-01 0.0000000000000000e+00  9.8529911854284835e-03 1.4435982025761021e-01 0.0000000000000000e+00  1.0670974361344687e-02 1.3948225675858222e-01 0.0000000000000000e+00  1.1224985397633509e-02 1.3459011845513921e-01 0.0000000000000000e+00  1.1549369782774455e-02 1.2974067597219544e-01 0.0000000000000000e+00  1.1685450335717924e-02 1.2497226526829577e-01 0.0000000000000000e+00  1.1665492966000741e-02 1.2031481368583777e-01 0.0000000000000000e+00  1.1520629650874135e-02 1.1579282037176408e-01 0.0000000000000000e+00  1.1278290598330029e-02 1.1141953431646563e-01 0.0000000000000000e+00  1.0960439185851741e-02 1.0721319569874677e-01 0.0000000000000000e+00  1.0589131769093742e-02 1.0316764501735771e-01 0.0000000000000000e+00  1.0175332825188701e-02 9.9300840274899008e-02 0.0000000000000000e+00  9.7347794135237923e-03 9.5600214956443941e-02 0.0000000000000000e+00  9.2745692304298920e-03 9.2070637202099806e-02 0.0000000000000000e+00  8.8006848394327555e-03 8.8708063803556780e-02 0.0000000000000000e+00  8.3219941010876271e-03 8.5509275157455947e-02 0.0000000000000000e+00  7.8462430621346196e-03 8.2463883131126375e-02 0.0000000000000000e+00  7.3758148071224102e-03 7.9565496029951416e-02 0.0000000000000000e+00  6.9107907246058501e-03 7.6813699152525797e-02 0.0000000000000000e+00  6.4586293485038426e-03 7.4193695973442678e-02 0.0000000000000000e+00  6.0130736055875834e-03 7.1704887530381012e-02 0.0000000000000000e+00  5.5819302643094707e-03 6.9336809840264246e-02 0.0000000000000000e+00  5.1646156741749806e-03 6.7085387647501674e-02 0.0000000000000000e+00  4.7604123916718645e-03 6.4943779902894308e-02 0.0000000000000000e+00  4.3703464900357487e-03 6.2904888665964498e-02 0.0000000000000000e+00  3.9950174073236150e-03 6.0965239419377031e-02 0.0000000000000000e+00  3.6349367550863828e-03 5.9116343084750049e-02 0.0000000000000000e+00  3.2880772703056003e-03 5.7356275050310442e-02 0.0000000000000000e+00  2.9565357449399953e-03 5.5677371385728404e-02 0.0000000000000000e+00  2.6404283143550613e-03 5.4077147713462462e-02 0.0000000000000000e+00  2.3377684129907423e-03 5.2549951219449199e-02 0.0000000000000000e+00  2.0492498807468942e-03 5.1092984831411670e-02 0.0000000000000000e+00  1.7739942182218170e-03 4.9701271119542638e-02 0.0000000000000000e+00  1.5132509749855390e-03 4.8372442991683952e-02 0.0000000000000000e+00  1.2666561845784685e-03 4.7102001836408176e-02 0.0000000000000000e+00  1.0327466754843915e-03 4.5888066341161306e-02 0.0000000000000000e+00  8.1109586913115242e-04 4.4726827658787938e-02 0.0000000000000000e+00  6.0284780350874998e-04 4.3615407094999122e-02 0.0000000000000000e+00  4.0615656914876817e-04 4.2552202195100662e-02 0.0000000000000000e+00  2.2207018486407117e-04 4.1533778358292174e-02 0.0000000000000000e+00  5.0530768195302907e-05 4.0558666853175461e-02 0.0000000000000000e+00  -1.1026731300754823e-04 3.9625012481064030e-02 0.0000000000000000e+00  6.0204298122973571e-04 3.8216339233146719e-02 0.0000000000000000e+00  1.4377364003988402e-03 3.7653465630315228e-02 0.0000000000000000e+00  2.2444232658820210e-03 3.7043868649891350e-02 0.0000000000000000e+00  3.0187484062913876e-03 3.6390649233032417e-02 0.0000000000000000e+00  3.7590709118777935e-03 3.5696125320204442e-02 0.0000000000000000e+00  4.4624768075196145e-03 3.4964187525872034e-02 0.0000000000000000e+00  5.1278524782861698e-03 3.4196867819149643e-02 0.0000000000000000e+00  5.7526644479215820e-03 3.3398098515946086e-02 0.0000000000000000e+00  6.3357054372490153e-03 3.2571037553940932e-02 0.0000000000000000e+00  6.8763979696644922e-03 3.1718706751659706e-02 0.0000000000000000e+00  7.3730674752878001e-03 3.0844754791420653e-02 0.0000000000000000e+00  7.8250487974247870e-03 2.9953343976327425e-02 0.0000000000000000e+00  8.2319365229317053e-03 2.9047305322604224e-02 0.0000000000000000e+00  8.5930059901064299e-03 2.8130912319596451e-02 0.0000000000000000e+00  8.9092281424297884e-03 2.7206234970227752e-02 0.0000000000000000e+00  9.1799525438080124e-03 2.6277711811897659e-02 0.0000000000000000e+00  9.4057682340782326e-03 2.5348775971283495e-02 0.0000000000000000e+00  9.5874503874637772e-03 2.4422076988924433e-02 0.0000000000000000e+00  9.7256718752813352e-03 2.3500452340900788e-02 0.0000000000000000e+00  9.8210277958187819e-03 2.2587694298702662e-02 0.0000000000000000e+00  9.8749282617396784e-03 2.1685895883493081e-02 0.0000000000000000e+00  9.8883058354050819e-03 2.0798148054138859e-02 0.0000000000000000e+00  9.8623679610079350e-03 1.9926941425553742e-02 0.0000000000000000e+00  9.7990268590729384e-03 1.9073639528165660e-02 0.0000000000000000e+00  9.6992940069066912e-03 1.8241063295143266e-02 0.0000000000000000e+00  9.5647079719250339e-03 1.7431006149036955e-02 0.0000000000000000e+00  9.3970216407286873e-03 1.6645348250369518e-02 0.0000000000000000e+00  9.1979485088466550e-03 1.5885069082756647e-02 0.0000000000000000e+00  8.9688948669677058e-03 1.5152750839663949e-02 0.0000000000000000e+00  8.7113642645719382e-03 1.4448995864397837e-02 0.0000000000000000e+00  8.4273398081782872e-03 1.3775022577392179e-02 0.0000000000000000e+00  8.1182466054769611e-03 1.3131754276101420e-02 0.0000000000000000e+00  7.7858934364809090e-03 1.2519854073036348e-02 0.0000000000000000e+00  7.4316357420072714e-03 1.1940664784250668e-02 0.0000000000000000e+00  7.0572541265589402e-03 1.1394562955563389e-02 0.0000000000000000e+00  6.6642520951040746e-03 1.0882506777070063e-02 0.0000000000000000e+00  6.2539012947924770e-03 1.0404122940006333e-02 0.0000000000000000e+00  5.8279516336677837e-03 9.9605488311135873e-03 0.0000000000000000e+00  5.3875417491807479e-03 9.5518394322843588e-03 0.0000000000000000e+00  4.9344128956125355e-03 9.1778913537865856e-03 0.0000000000000000e+00  4.4696578116351160e-03 8.8396579557538067e-03 0.0000000000000000e+00  3.9944923848787275e-03 8.5376703145022236e-03 0.0000000000000000e+00  3.5104201006551862e-03 8.2707690093338192e-03 0.0000000000000000e+00  3.0184114041450607e-03 8.0397698703685277e-03 0.0000000000000000e+00  2.5197632821390556e-03 7.8445587538686842e-03 0.0000000000000000e+00  2.0157660147916952e-03 7.6853008435650736e-03 0.0000000000000000e+00  1.5073209100023729e-03 7.5615572066079400e-03 0.0000000000000000e+00  9.9602464478826475e-04 7.4741791989330246e-03 0.0000000000000000e+00  4.8247597816066651e-04 7.4231425454967708e-03 0.0000000000000000e+00  -3.1829594171255941e-05 7.4077189611179315e-03 0.0000000000000000e+00  -5.4601085029378112e-04 7.4281928399194197e-03 0.0000000000000000e+00  -1.0590174635436236e-03 7.4850339058260083e-03 0.0000000000000000e+00  -1.5694672541466950e-03 7.5779911384572770e-03 0.0000000000000000e+00  -2.0764358811330074e-03 7.7067047026661067e-03 0.0000000000000000e+00  -2.5786931038556692e-03 7.8711000702730988e-03 0.0000000000000000e+00  -3.0753391648388815e-03 8.0713652131578911e-03 0.0000000000000000e+00  -3.5648934154260958e-03 8.3072393633520716e-03 0.0000000000000000e+00  -4.0463815092001481e-03 8.5790956035620720e-03 0.0000000000000000e+00  -4.5184254494149388e-03 8.8863823534770618e-03 0.0000000000000000e+00  -4.9797283486975250e-03 9.2294048725630809e-03 0.0000000000000000e+00  -5.4293023622389303e-03 9.6070497266822017e-03 0.0000000000000000e+00  -5.8653676922976227e-03 1.0020018816473910e-02 0.0000000000000000e+00  -6.2870173638796979e-03 1.0467604985133636e-02 0.0000000000000000e+00  -6.6925720116094807e-03 1.0949500310039016e-02 0.0000000000000000e+00  -7.0805445859557148e-03 1.1465332283653226e-02 0.0000000000000000e+00  -7.4495948541845099e-03 1.2014654698416031e-02 0.0000000000000000e+00  -7.7979691420749049e-03 1.2596656922943520e-02 0.0000000000000000e+00  -8.1246356610828272e-03 1.3210387729104619e-02 0.0000000000000000e+00  -8.4272581967159404e-03 1.3855694179519207e-02 0.0000000000000000e+00  -8.7050376277406950e-03 1.4531187855928416e-02 0.0000000000000000e+00  -8.9558660529092601e-03 1.5235729758671284e-02 0.0000000000000000e+00  -9.1780978073929126e-03 1.5969098752713368e-02 0.0000000000000000e+00  -9.3702593949772251e-03 1.6729715012793241e-02 0.0000000000000000e+00  -9.5308364221414494e-03 1.7515105127592707e-02 0.0000000000000000e+00  -9.6584081188380005e-03 1.8324399210892815e-02 0.0000000000000000e+00  -9.7507073781773999e-03 1.9155587144706266e-02 0.0000000000000000e+00  -9.8073481468341234e-03