<?xml version="1.0"?>
<VTKFile type="UnstructuredGrid"  version="0.1"  >
<UnstructuredGrid>
<Piece  NumberOfPoints="16275" NumberOfCells="32468">
<Points>
<DataArray  type="Float64"  NumberOfComponents="3"  format="ascii">-0.5 0.5 0  0.5 0.5 0  0.5 -0.5 0  -0.5 -0.5 0  -1 1 0  1 1 0  1 -1 0  -1 -1 0  -0.4900000000000277 0.5 0  -0.4800000000000555 0.5 0  -0.4700000000000832 0.5 0  -0.4600000000001109 0.5 0  -0.4500000000001387 0.5 0  -0.4400000000001664 0.5 0  -0.4300000000001942 0.5 0  -0.4200000000002219 0.5 0  -0.4100000000002497 0.5 0  -0.4000000000002774 0.5 0  -0.3900000000003052 0.5 0  -0.3800000000003328 0.5 0  -0.3700000000003606 0.5 0  -0.3600000000003883 0.5 0  -0.3500000000004161 0.5 0  -0.3400000000004438 0.5 0  -0.3300000000004716 0.5 0  -0.3200000000004993 0.5 0  -0.3100000000005271 0.5 0  -0.3000000000005548 0.5 0  -0.2900000000005825 0.5 0  -0.2800000000006103 0.5 0  -0.2700000000006381 0.5 0  -0.2600000000006658 0.5 0  -0.2500000000006935 0.5 0  -0.2400000000007212 0.5 0  -0.230000000000749 0.5 0  -0.2200000000007767 0.5 0  -0.2100000000008044 0.5 0  -0.2000000000008322 0.5 0  -0.19000000000086 0.5 0  -0.1800000000008877 0.5 0  -0.1700000000009154 0.5 0  -0.1600000000009431 0.5 0  -0.1500000000009709 0.5 0  -0.1400000000009986 0.5 0  -0.1300000000010264 0.5 0  -0.1200000000010541 0.5 0  -0.1100000000010818 0.5 0  -0.1000000000011096 0.5 0  -0.09000000000113734 0.5 0  -0.08000000000116503 0.5 0  -0.07000000000119283 0.5 0  -0.06000000000122058 0.5 0  -0.05000000000124827 0.5 0  -0.04000000000127607 0.5 0  -0.03000000000130376 0.5 0  -0.02000000000133151 0.5 0  -0.01000000000135925 0.5 0  -1.376121439022882e-12 0.5 0  0.009999999998640763 0.5 0  0.01999999999866864 0.5 0  0.02999999999869629 0.5 0  0.03999999999872406 0.5 0  0.04999999999875182 0.5 0  0.05999999999877947 0.5 0  0.06999999999880724 0.5 0  0.079999999998835 0.5 0  0.08999999999886266 0.5 0  0.09999999999889042 0.5 0  0.1099999999989182 0.5 0  0.1199999999989459 0.5 0  0.1299999999989737 0.5 0  0.1399999999990014 0.5 0  0.1499999999990291 0.5 0  0.1599999999990568 0.5 0  0.1699999999990847 0.5 0  0.1799999999991124 0.5 0  0.1899999999991401 0.5 0  0.1999999999991678 0.5 0  0.2099999999991955 0.5 0  0.2199999999992234 0.5 0  0.2299999999992511 0.5 0  0.2399999999992788 0.5 0  0.2499999999993066 0.5 0  0.2599999999993342 0.5 0  0.269999999999362 0.5 0  0.2799999999993897 0.5 0  0.2899999999994175 0.5 0  0.2999999999994452 0.5 0  0.3099999999994729 0.5 0  0.3199999999995007 0.5 0  0.3299999999995284 0.5 0  0.3399999999995562 0.5 0  0.3499999999995839 0.5 0  0.3599999999996116 0.5 0  0.3699999999996393 0.5 0  0.379999999999667 0.5 0  0.3899999999996949 0.5 0  0.3999999999997226 0.5 0  0.4099999999997503 0.5 0  0.419999999999778 0.5 0  0.4299999999998058 0.5 0  0.4399999999998336 0.5 0  0.4499999999998613 0.5 0  0.4599999999998891 0.5 0  0.4699999999999167 0.5 0  0.4799999999999445 0.5 0  0.4899999999999722 0.5 0  0.5 0.4900000000000277 0  0.5 0.4800000000000555 0  0.5 0.4700000000000832 0  0.5 0.4600000000001109 0  0.5 0.4500000000001387 0  0.5 0.4400000000001664 0  0.5 0.4300000000001942 0  0.5 0.4200000000002219 0  0.5 0.4100000000002497 0  0.5 0.4000000000002774 0  0.5 0.3900000000003052 0  0.5 0.3800000000003328 0  0.5 0.3700000000003606 0  0.5 0.3600000000003883 0  0.5 0.3500000000004161 0  0.5 0.3400000000004438 0  0.5 0.3300000000004716 0  0.5 0.3200000000004993 0  0.5 0.3100000000005271 0  0.5 0.3000000000005548 0  0.5 0.2900000000005825 0  0.5 0.2800000000006103 0  0.5 0.2700000000006381 0  0.5 0.2600000000006658 0  0.5 0.2500000000006935 0  0.5 0.2400000000007212 0  0.5 0.230000000000749 0  0.5 0.2200000000007767 0  0.5 0.2100000000008044 0  0.5 0.2000000000008322 0  0.5 0.19000000000086 0  0.5 0.1800000000008877 0  0.5 0.1700000000009154 0  0.5 0.1600000000009431 0  0.5 0.1500000000009709 0  0.5 0.1400000000009986 0  0.5 0.1300000000010264 0  0.5 0.1200000000010541 0  0.5 0.1100000000010818 0  0.5 0.1000000000011096 0  0.5 0.09000000000113734 0  0.5 0.08000000000116503 0  0.5 0.07000000000119283 0  0.5 0.06000000000122058 0  0.5 0.05000000000124827 0  0.5 0.04000000000127607 0  0.5 0.03000000000130376 0  0.5 0.02000000000133151 0  0.5 0.01000000000135925 0  0.5 1.376121439022882e-12 0  0.5 -0.009999999998640763 0  0.5 -0.01999999999866864 0  0.5 -0.02999999999869629 0  0.5 -0.03999999999872406 0  0.5 -0.04999999999875182 0  0.5 -0.05999999999877947 0  0.5 -0.06999999999880724 0  0.5 -0.079999999998835 0  0.5 -0.08999999999886266 0  0.5 -0.09999999999889042 0  0.5 -0.1099999999989182 0  0.5 -0.1199999999989459 0  0.5 -0.1299999999989737 0  0.5 -0.1399999999990014 0  0.5 -0.1499999999990291 0  0.5 -0.1599999999990568 0  0.5 -0.1699999999990847 0  0.5 -0.1799999999991124 0  0.5 -0.1899999999991401 0  0.5 -0.1999999999991678 0  0.5 -0.2099999999991955 0  0.5 -0.2199999999992234 0  0.5 -0.2299999999992511 0  0.5 -0.2399999999992788 0  0.5 -0.2499999999993066 0  0.5 -0.2599999999993342 0  0.5 -0.269999999999362 0  0.5 -0.2799999999993897 0  0.5 -0.2899999999994175 0  0.5 -0.2999999999994452 0  0.5 -0.3099999999994729 0  0.5 -0.3199999999995007 0  0.5 -0.3299999999995284 0  0.5 -0.3399999999995562 0  0.5 -0.3499999999995839 0  0.5 -0.3599999999996116 0  0.5 -0.3699999999996393 0  0.5 -0.379999999999667 0  0.5 -0.3899999999996949 0  0.5 -0.3999999999997226 0  0.5 -0.4099999999997503 0  0.5 -0.419999999999778 0  0.5 -0.4299999999998058 0  0.5 -0.4399999999998336 0  0.5 -0.4499999999998613 0  0.5 -0.4599999999998891 0  0.5 -0.4699999999999167 0  0.5 -0.4799999999999445 0  0.5 -0.4899999999999722 0  0.4900000000000277 -0.5 0  0.4800000000000555 -0.5 0  0.4700000000000832 -0.5 0  0.4600000000001109 -0.5 0  0.4500000000001387 -0.5 0  0.4400000000001664 -0.5 0  0.4300000000001942 -0.5 0  0.4200000000002219 -0.5 0  0.4100000000002497 -0.5 0  0.4000000000002774 -0.5 0  0.3900000000003052 -0.5 0  0.3800000000003328 -0.5 0  0.3700000000003606 -0.5 0  0.3600000000003883 -0.5 0  0.3500000000004161 -0.5 0  0.3400000000004438 -0.5 0  0.3300000000004716 -0.5 0  0.3200000000004993 -0.5 0  0.3100000000005271 -0.5 0  0.3000000000005548 -0.5 0  0.2900000000005825 -0.5 0  0.2800000000006103 -0.5 0  0.2700000000006381 -0.5 0  0.2600000000006658 -0.5 0  0.2500000000006935 -0.5 0  0.2400000000007212 -0.5 0  0.230000000000749 -0.5 0  0.2200000000007767 -0.5 0  0.2100000000008044 -0.5 0  0.2000000000008322 -0.5 0  0.19000000000086 -0.5 0  0.1800000000008877 -0.5 0  0.1700000000009154 -0.5 0  0.1600000000009431 -0.5 0  0.1500000000009709 -0.5 0  0.1400000000009986 -0.5 0  0.1300000000010264 -0.5 0  0.1200000000010541 -0.5 0  0.1100000000010818 -0.5 0  0.1000000000011096 -0.5 0  0.09000000000113734 -0.5 0  0.08000000000116503 -0.5 0  0.07000000000119283 -0.5 0  0.06000000000122058 -0.5 0  0.05000000000124827 -0.5 0  0.04000000000127607 -0.5 0  0.03000000000130376 -0.5 0  0.02000000000133151 -0.5 0  0.01000000000135925 -0.5 0  1.376121439022882e-12 -0.5 0  -0.009999999998640763 -0.5 0  -0.01999999999866864 -0.5 0  -0.02999999999869629 -0.5 0  -0.03999999999872406 -0.5 0  -0.04999999999875182 -0.5 0  -0.05999999999877947 -0.5 0  -0.06999999999880724 -0.5 0  -0.079999999998835 -0.5 0  -0.08999999999886266 -0.5 0  -0.09999999999889042 -0.5 0  -0.1099999999989182 -0.5 0  -0.1199999999989459 -0.5 0  -0.1299999999989737 -0.5 0  -0.1399999999990014 -0.5 0  -0.1499999999990291 -0.5 0  -0.1599999999990568 -0.5 0  -0.1699999999990847 -0.5 0  -0.1799999999991124 -0.5 0  -0.1899999999991401 -0.5 0  -0.1999999999991678 -0.5 0  -0.2099999999991955 -0.5 0  -0.2199999999992234 -0.5 0  -0.2299999999992511 -0.5 0  -0.2399999999992788 -0.5 0  -0.2499999999993066 -0.5 0  -0.2599999999993342 -0.5 0  -0.269999999999362 -0.5 0  -0.2799999999993897 -0.5 0  -0.2899999999994175 -0.5 0  -0.2999999999994452 -0.5 0  -0.3099999999994729 -0.5 0  -0.3199999999995007 -0.5 0  -0.3299999999995284 -0.5 0  -0.3399999999995562 -0.5 0  -0.3499999999995839 -0.5 0  -0.3599999999996116 -0.5 0  -0.3699999999996393 -0.5 0  -0.379999999999667 -0.5 0  -0.3899999999996949 -0.5 0  -0.3999999999997226 -0.5 0  -0.4099999999997503 -0.5 0  -0.419999999999778 -0.5 0  -0.4299999999998058 -0.5 0  -0.4399999999998336 -0.5 0  -0.4499999999998613 -0.5 0  -0.4599999999998891 -0.5 0  -0.4699999999999167 -0.5 0  -0.4799999999999445 -0.5 0  -0.4899999999999722 -0.5 0  -0.5 -0.4900000000000277 0  -0.5 -0.4800000000000555 0  -0.5 -0.4700000000000832 0  -0.5 -0.4600000000001109 0  -0.5 -0.4500000000001387 0  -0.5 -0.4400000000001664 0  -0.5 -0.4300000000001942 0  -0.5 -0.4200000000002219 0  -0.5 -0.4100000000002497 0  -0.5 -0.4000000000002774 0  -0.5 -0.3900000000003052 0  -0.5 -0.3800000000003328 0  -0.5 -0.3700000000003606 0  -0.5 -0.3600000000003883 0  -0.5 -0.3500000000004161 0  -0.5 -0.3400000000004438 0  -0.5 -0.3300000000004716 0  -0.5 -0.3200000000004993 0  -0.5 -0.3100000000005271 0  -0.5 -0.3000000000005548 0  -0.5 -0.2900000000005825 0  -0.5 -0.2800000000006103 0  -0.5 -0.2700000000006381 0  -0.5 -0.2600000000006658 0  -0.5 -0.2500000000006935 0  -0.5 -0.2400000000007212 0  -0.5 -0.230000000000749 0  -0.5 -0.2200000000007767 0  -0.5 -0.2100000000008044 0  -0.5 -0.2000000000008322 0  -0.5 -0.19000000000086 0  -0.5 -0.1800000000008877 0  -0.5 -0.1700000000009154 0  -0.5 -0.1600000000009431 0  -0.5 -0.1500000000009709 0  -0.5 -0.1400000000009986 0  -0.5 -0.1300000000010264 0  -0.5 -0.1200000000010541 0  -0.5 -0.1100000000010818 0  -0.5 -0.1000000000011096 0  -0.5 -0.09000000000113734 0  -0.5 -0.08000000000116503 0  -0.5 -0.07000000000119283 0  -0.5 -0.06000000000122058 0  -0.5 -0.05000000000124827 0  -0.5 -0.04000000000127607 0  -0.5 -0.03000000000130376 0  -0.5 -0.02000000000133151 0  -0.5 -0.01000000000135925 0  -0.5 -1.376121439022882e-12 0  -0.5 0.009999999998640763 0  -0.5 0.01999999999866864 0  -0.5 0.02999999999869629 0  -0.5 0.03999999999872406 0  -0.5 0.04999999999875182 0  -0.5 0.05999999999877947 0  -0.5 0.06999999999880724 0  -0.5 0.079999999998835 0  -0.5 0.08999999999886266 0  -0.5 0.09999999999889042
[...]
<PointData  Vectors="f_27-0"> 
<DataArray  type="Float64"  Name="f_27-0"  NumberOfComponents="3" format="ascii">1.5562707538429189e-03 4.8590096469101632e-02 0.0000000000000000e+00  -2.1430403620717911e-03 4.8308653757387555e-02 0.0000000000000000e+00  -4.3041504796254791e-04 3.7958102506019858e-02 0.0000000000000000e+00  5.3656716857355990e-04 3.7862807917553060e-02 0.0000000000000000e+00  -1.6618196961652870e-03 6.4379838437508318e-03 0.0000000000000000e+00  1.6638696165043978e-03 6.4025359847313633e-03 0.0000000000000000e+00  -8.3606298036963741e-04 6.1585166793727050e-03 0.0000000000000000e+00  8.3113326267304289e-04 6.1839621770282569e-03 0.0000000000000000e+00  2.8198742451445635e-03 4.7848063890173896e-02 0.0000000000000000e+00  4.0399641941802726e-03 4.7026465671720058e-02 0.0000000000000000e+00  5.2101639376429618e-03 4.6130433769934719e-02 0.0000000000000000e+00  6.3270475095451150e-03 4.5164183621983746e-02 0.0000000000000000e+00  7.3847075755498525e-03 4.4134289947596085e-02 0.0000000000000000e+00  8.3809385918143797e-03 4.3045016062679978e-02 0.0000000000000000e+00  9.3107791330518698e-03 4.1904612609912850e-02 0.0000000000000000e+00  1.0173234012575258e-02 4.0717643378861669e-02 0.0000000000000000e+00  1.0965531581920150e-02 3.9490987693770373e-02 0.0000000000000000e+00  1.1684833995199097e-02 3.8232354541706384e-02 0.0000000000000000e+00  1.2331952022872929e-02 3.6947703777282001e-02 0.0000000000000000e+00  1.2906004614194949e-02 3.5642414561387815e-02 0.0000000000000000e+00  1.3406989136623517e-02 3.4323733230099372e-02 0.0000000000000000e+00  1.3836224020387136e-02 3.2996257369338131e-02 0.0000000000000000e+00  1.4193011228016757e-02 3.1668499425985347e-02 0.0000000000000000e+00  1.4480466300143827e-02 3.0343694910024959e-02 0.0000000000000000e+00  1.4699853253551510e-02 2.9026968717190193e-02 0.0000000000000000e+00  1.4852639093249340e-02 2.7724459194883967e-02 0.0000000000000000e+00  1.4941822846858925e-02 2.6440381257092971e-02 0.0000000000000000e+00  1.4969980667866617e-02 2.5177471790472136e-02 0.0000000000000000e+00  1.4939228297134795e-02 2.3940492875281445e-02 0.0000000000000000e+00  1.4852926464355046e-02 2.2731869305905952e-02 0.0000000000000000e+00  1.4713837554373383e-02 2.1554423793531716e-02 0.0000000000000000e+00  1.4524462462602685e-02 2.0412780694023993e-02 0.0000000000000000e+00  1.4288036572657731e-02 1.9307147938097905e-02 0.0000000000000000e+00  1.4007807170052683e-02 1.8239941709970776e-02 0.0000000000000000e+00  1.3686141293123540e-02 1.7212666494418657e-02 0.0000000000000000e+00  1.3326036005021476e-02 1.6227732412698745e-02 0.0000000000000000e+00  1.2930498865207959e-02 1.5284247092774832e-02 0.0000000000000000e+00  1.2502180431345471e-02 1.4384199996870637e-02 0.0000000000000000e+00  1.2043344574679914e-02 1.3528370192092356e-02 0.0000000000000000e+00  1.1556608719046903e-02 1.2717154546838579e-02 0.0000000000000000e+00  1.1044396515307963e-02 1.1951220952908220e-02 0.0000000000000000e+00  1.0509038265082685e-02 1.1229869968254712e-02 0.0000000000000000e+00  9.9523478482125179e-03 1.0553511745194951e-02 0.0000000000000000e+00  9.3764350902171799e-03 9.9217136366281100e-03 0.0000000000000000e+00  8.7833971776535152e-03 9.3353019564080368e-03 0.0000000000000000e+00  8.1746907684038927e-03 8.7933488499663624e-03 0.0000000000000000e+00  7.5521646921187912e-03 8.2955034352145858e-03 0.0000000000000000e+00  6.9173061646614839e-03 7.8425034183876741e-03 0.0000000000000000e+00  6.2716699114427586e-03 7.4330532613542761e-03 0.0000000000000000e+00  5.6166549913632827e-03 7.0663579183881768e-03 0.0000000000000000e+00  4.9532663428486527e-03 6.7440016028159321e-03 0.0000000000000000e+00  4.2829175297371827e-03 6.4643535584324426e-03 0.0000000000000000e+00  3.6066780654360640e-03 6.2274299073037317e-03 0.0000000000000000e+00  2.9254205745048254e-03 6.0327331550982140e-03 0.0000000000000000e+00  2.2407582102466168e-03 5.8808576939648098e-03 0.0000000000000000e+00  1.5530138497593449e-03 5.7706673333205848e-03 0.0000000000000000e+00  8.6377722907415226e-04 5.7019771519645846e-03 0.0000000000000000e+00  1.7340889987428558e-04 5.6756538018476171e-03 0.0000000000000000e+00  -5.1688389403496801e-04 5.6912324238272962e-03 0.0000000000000000e+00  -1.2060383144707153e-03 5.7478584810319528e-03 0.0000000000000000e+00  -1.8934885403085406e-03 5.8461068232256172e-03 0.0000000000000000e+00  -2.5779548547788336e-03 5.9865337353951619e-03 0.0000000000000000e+00  -3.2587238675209520e-03 6.1693636444605350e-03 0.0000000000000000e+00  -3.9344974929601800e-03 6.3942295526090570e-03 0.0000000000000000e+00  -4.6045213698815606e-03 6.6615808433639536e-03 0.0000000000000000e+00  -5.2674996715651960e-03 6.9711826947118152e-03 0.0000000000000000e+00  -5.9225291151766991e-03 7.3237215681994658e-03 0.0000000000000000e+00  -6.5682854281852590e-03 7.7188677063074239e-03 0.0000000000000000e+00  -7.2032373438557324e-03 8.1581474520599009e-03 0.0000000000000000e+00  -7.8265601475923791e-03 8.6405005404887464e-03 0.0000000000000000e+00  -8.4361013956918765e-03 9.1666318772239772e-03 0.0000000000000000e+00  -9.0307198727531818e-03 9.7368124451821837e-03 0.0000000000000000e+00  -9.6087653363444263e-03 1.0350882357327937e-02 0.0000000000000000e+00  -1.0168064647554369e-02 1.1009076053664987e-02 0.0000000000000000e+00  -1.0707476455302395e-02 1.1711955213398354e-02 0.0000000000000000e+00  -1.1223907930917503e-02 1.2459388291470752e-02 0.0000000000000000e+00  -1.1716558216163787e-02 1.3250836914070961e-02 0.0000000000000000e+00  -1.2181951859446864e-02 1.4086207975940134e-02 0.0000000000000000e+00  -1.2618563525406067e-02 1.4965834493683720e-02 0.0000000000000000e+00  -1.3023885057235529e-02 1.5887232889763379e-02 0.0000000000000000e+00  -1.3395094866898256e-02 1.6850463464512046e-02 0.0000000000000000e+00  -1.3730012070018335e-02 1.7855671317600599e-02 0.0000000000000000e+00  -1.4025193349377208e-02 1.8900698361435795e-02 0.0000000000000000e+00  -1.4278931959954421e-02 1.9984241018545606e-02 0.0000000000000000e+00  -1.4487093179572669e-02 2.1105469270321975e-02 0.0000000000000000e+00  -1.4647952778517642e-02 2.2260025928464818e-02 0.0000000000000000e+00  -1.4758207446811092e-02 2.3447801834486741e-02 0.0000000000000000e+00  -1.4814859284926334e-02 2.4665530047348387e-02 0.0000000000000000e+00  -1.4815490388575416e-02 2.5910087417142701e-02 0.0000000000000000e+00  -1.4756988528960759e-02 2.7177834626203799e-02 0.0000000000000000e+00  -1.4637456132462154e-02 2.8465585548974694e-02 0.0000000000000000e+00  -1.4453283476074944e-02 2.9769866360372016e-02 0.0000000000000000e+00  -1.4203686673706927e-02 3.1084132860850940e-02 0.0000000000000000e+00  -1.3886043269778511e-02 3.2405149558533922e-02 0.0000000000000000e+00  -1.3498360287956845e-02 3.3728361734732815e-02 0.0000000000000000e+00  -1.3039657473228630e-02 3.5046929302124413e-02 0.0000000000000000e+00  -1.2509173206806322e-02 3.6355335519328229e-02 0.0000000000000000e+00  -1.1906271231159445e-02 3.7647423702227192e-02 0.0000000000000000e+00  -1.1231149832075446e-02 3.8917533100314435e-02 0.0000000000000000e+00  -1.0482965057559765e-02 4.0160138663144378e-02 0.0000000000000000e+00  -9.6641732687001523e-03 4.1367255676275458e-02 0.0000000000000000e+00  -8.7758463758447879e-03 4.2532726165079825e-02 0.0000000000000000e+00  -7.8192813639474876e-03 4.3651358427185954e-02 0.0000000000000000e+00  -6.7992023464803399e-03 4.4714295383804052e-02 0.0000000000000000e+00  -5.7165885764465050e-03 4.5717897632948111e-02 0.0000000000000000e+00  -4.5766075700257756e-03 4.6655002282324956e-02 0.0000000000000000e+00  -3.3839132353442524e-03 4.7520160704050338e-02 0.0000000000000000e+00  -2.4572852283121826e-03 4.9604906163917488e-02 0.0000000000000000e+00  -2.7950809545229729e-03 5.0967662294718476e-02 0.0000000000000000e+00  -3.1562373668223287e-03 5.2403959452431537e-02 0.0000000000000000e+00  -3.5436972939023510e-03 5.3915918070798895e-02 0.0000000000000000e+00  -3.9583028346596126e-03 5.5511113152421569e-02 0.0000000000000000e+00  -4.4051978991191867e-03 5.7193127578987688e-02 0.0000000000000000e+00  -4.8813987206945512e-03 5.8968601511388191e-02 0.0000000000000000e+00  -5.3959638435856277e-03 6.0844697352092927e-02 0.0000000000000000e+00  -5.9503812758023604e-03 6.2826506640579552e-02 0.0000000000000000e+00  -6.5445544657644341e-03 6.4923486166547528e-02 0.0000000000000000e+00  -7.1855927120269038e-03 6.7142578222742971e-02 0.0000000000000000e+00  -7.8801829635127638e-03 6.9490290704948998e-02 0.0000000000000000e+00  -8.6325361827842093e-03 7.1977125681990745e-02 0.0000000000000000e+00  -9.4513245328439657e-03 7.4605934410531233e-02 0.0000000000000000e+00  -1.0339588546635574e-02 7.7388564790267178e-02 0.0000000000000000e+00  -1.1306929904008722e-02 8.0330821189577073e-02 0.0000000000000000e+00  -1.2365010504678723e-02 8.3431929397905488e-02 0.0000000000000000e+00  -1.3513544727361774e-02 8.6701369054234437e-02 0.0000000000000000e+00  -1.4757021911136967e-02 9.0129821887894049e-02 0.0000000000000000e+00  -1.6093983239949795e-02 9.3705539227817478e-02 0.0000000000000000e+00  -1.7497727654806026e-02 9.7415134344134929e-02 0.0000000000000000e+00  -1.8929621164452466e-02 1.0122071278052379e-01 0.0000000000000000e+00  -2.0297475906921360e-02 1.0507853623508921e-01 0.0000000000000000e+00  -2.1463790413256179e-02 1.0892545075519643e-01 0.0000000000000000e+00  -2.2191001585867925e-02 1.1267209939863521e-01 0.0000000000000000e+00  -2.2140498376075169e-02 1.1621631384015903e-01 0.0000000000000000e+00  -2.0847001311076582e-02 1.1942760042710150e-01 0.0000000000000000e+00  -1.7742899105945911e-02 1.2218786956414755e-01 0.0000000000000000e+00  -1.2193570475766255e-02 1.2438252210713849e-01 0.0000000000000000e+00  -3.7129042139511710e-03 1.2591686313346664e-01 0.0000000000000000e+00  7.8380162537384501e-03 1.2675647105568630e-01 0.0000000000000000e+00  2.1969712237712512e-02 1.2686167475558685e-01 0.0000000000000000e+00  3.7360227619057523e-02 1.2615973557894983e-01 0.0000000000000000e+00  5.1950275898365234e-02 1.2451978173399159e-01 0.0000000000000000e+00  6.3049080142979788e-02 1.2158925406245853e-01 0.0000000000000000e+00  6.7383434305054224e-02 1.1716545329359589e-01 0.0000000000000000e+00  6.1667210847799331e-02 1.1118866674609641e-01 0.0000000000000000e+00  4.3099129340021081e-02 1.0486406583381690e-01 0.0000000000000000e+00  1.2961783085841385e-02 1.0022061234253343e-01 0.0000000000000000e+00  -2.2102584134464125e-02 1.0053244412543444e-01 0.0000000000000000e+00  -5.0185065546477267e-02 1.0791562420980344e-01 0.0000000000000000e+00  -6.1709254651447852e-02 1.2181506025544685e-01 0.0000000000000000e+00  -5.8256465950475733e-02 1.3790867857711353e-01 0.0000000000000000e+00  -4.8844014788182052e-02 1.5177063941649671e-01 0.0000000000000000e+00  -3.9744301682090553e-02 1.6164136142493243e-01 0.0000000000000000e+00  -3.2039257960111540e-02 1.6813285912903406e-01 0.0000000000000000e+00  -2.5429798661722573e-02 1.7197548664161219e-01 0.0000000000000000e+00  -1.9740604854489512e-02 1.7385491159696023e-01 0.0000000000000000e+00  -1.4722189169502202e-02 1.7419599864822288e-01 0.0000000000000000e+00  -1.0306664206977784e-02 1.7330789259785387e-01 0.0000000000000000e+00  -6.4373382737997042e-03 1.7141908276536316e-01 0.0000000000000000e+00  -3.0719231031907665e-03 1.6873770352302697e-01 0.0000000000000000e+00  -1.6982791640408128e-04 1.6543110764881849e-01 0.0000000000000000e+00  2.3223033646254457e-03 1.6162611355004536e-01 0.0000000000000000e+00  4.4068705685678857e-03 1.5743989609018608e-01 0.0000000000000000e+00  6.1345887958038541e-03 1.5297290600710328e-01 0.0000000000000000e+00  7.5259269899644200e-03 1.4831954339600142e-01 0.0000000000000000e+00  8.6104483422397085e-03 1.4355949154362926e-01 0.0000000000000000e+00  9.4306515787838368e-03 1.3874771120024496e-01 0.0000000000000000e+00  1.0012861127180649e-02 1.3394442693513203e-01 0.0000000000000000e+00  1.0396323429308525e-02 1.2918396868762200e-01 0.0000000000000000e+00  1.0604177187068325e-02 1.2450875898627141e-01 0.0000000000000000e+00  1.0667948007509080e-02 1.1994325371508142e-01 0.0000000000000000e+00  1.0610166759850857e-02 1.1550789080004720e-01 0.0000000000000000e+00  1.0453856011251227e-02 1.1121822657862995e-01 0.0000000000000000e+00  1.0219702590129357e-02 1.0708122188267204e-01 0.0000000000000000e+00  9.9245408873216787e-03 1.0310974980927287e-01 0.0000000000000000e+00  9.5853364182130717e-03 9.9295087142287838e-02 0.0000000000000000e+00  9.2102585555735150e-03 9.5650861007357410e-02 0.0000000000000000e+00  8.8118838168419599e-03 9.2163919290188148e-02 0.0000000000000000e+00  8.3960883008832674e-03 8.8837469724930881e-02 0.0000000000000000e+00  7.9671545868762340e-03 8.5666715088565187e-02 0.0000000000000000e+00  7.5326588269289665e-03 8.2648041239880593e-02 0.0000000000000000e+00  7.0995118730250543e-03 7.9771679698888542e-02 0.0000000000000000e+00  6.6698189468817615e-03 7.7031435928110820e-02 0.0000000000000000e+00  6.2438836232663114e-03 7.4426488564568891e-02 0.0000000000000000e+00  5.8285033558898424e-03 7.1943643827187390e-02 0.0000000000000000e+00  5.4180612489168993e-03 6.9582067956219476e-02 0.0000000000000000e+00  5.0197966004792843e-03 6.7332322144810053e-02 0.0000000000000000e+00  4.6334045752979636e-03 6.5190671211680928e-02 0.0000000000000000e+00  4.2583447780850242e-03 6.3150961102265549e-02 0.0000000000000000e+00  3.8956890726389074e-03 6.1206702315588939e-02 0.0000000000000000e+00  3.5462257844250194e-03 5.9354777973872667e-02 0.0000000000000000e+00  3.2105031690362988e-03 5.7587451425637329e-02 0.0000000000000000e+00  2.8867430609898700e-03 5.5903023386944674e-02 0.0000000000000000e+00  2.5768922142931239e-03 5.4294525780058195e-02 0.0000000000000000e+00  2.2812236715425921e-03 5.2759735551660601e-02 0.0000000000000000e+00  1.9980101146212233e-03 5.1293476312986967e-02 0.0000000000000000e+00  1.7279933782277058e-03 4.9893231664488238e-02 0.0000000000000000e+00  1.4703657397780894e-03 4.8554464910463703e-02 0.0000000000000000e+00  1.2262496372999929e-03 4.7275036940270514e-02 0.0000000000000000e+00  9.9528397229110897e-04 4.6050765365773932e-02 0.0000000000000000e+00  7.7620857563633343e-04 4.4879880622062412e-02 0.0000000000000000e+00  5.6877829949473276e-04 4.3758880979048127e-02 0.0000000000000000e+00  3.7417768766353924e-04 4.2685189790195498e-02 0.0000000000000000e+00  1.9066297117714378e-04 4.1657401884796066e-02 0.0000000000000000e+00  1.9089111213503680e-05 4.0672361602610577e-02 0.0000000000000000e+00  -1.4071247555536313e-04 3.9728665134567832e-02 0.0000000000000000e+00  -2.9045059491110019e-04 3.8824540407057621e-02 0.0000000000000000e+00  4.0610400582675809e-04 3.7462034255045414e-02 0.0000000000000000e+00  1.2166906880328192e-03 3.6919432716123718e-02 0.0000000000000000e+00  1.9995382381243093e-03 3.6331885776438810e-02 0.0000000000000000e+00  2.7514396355349234e-03 3.5702304430853780e-02 0.0000000000000000e+00  3.4708253576682473e-03 3.5032850615755069e-02 0.0000000000000000e+00  4.1549268440021362e-03 3.4327165702579258e-02 0.0000000000000000e+00  4.8026635128636200e-03 3.3587163910535858e-02 0.0000000000000000e+00  5.4116086399554359e-03 3.2816561135758010e-02 0.0000000000000000e+00  5.9805969110119806e-03 3.2018403838135936e-02 0.0000000000000000e+00  6.5090468476025039e-03 3.1195598599072737e-02 0.0000000000000000e+00  6.9953313704319963e-03 3.0351546877384658e-02 0.0000000000000000e+00  7.4387918501959754e-03 2.9490154138476984e-02 0.0000000000000000e+00  7.8390019312890354e-03 2.8614162365002558e-02 0.0000000000000000e+00  8.1952328066299471e-03 2.7727690399188751e-02 0.0000000000000000e+00  8.5083246379627740e-03 2.6832749803023716e-02 0.0000000000000000e+00  8.7776209698812654e-03 2.5933547156638381e-02 0.0000000000000000e+00  9.0036280647838168e-03 2.5033380486128423e-02 0.0000000000000000e+00  9.1870406907753350e-03 2.4134823606677191e-02 0.0000000000000000e+00  9.3284517804362050e-03 2.3240641485549968e-02 0.0000000000000000e+00  9.4283731840868606e-03 2.2354488233569402e-02 0.0000000000000000e+00  9.4881111767248887e-03 2.1478403233584027e-02 0.0000000000000000e+00  9.5085169815207187e-03 2.0615394076149311e-02 0.0000000000000000e+00  9.4907067604575301e-03 1.9767897831696885e-02 0.0000000000000000e+00  9.4364807942647570e-03 1.8937294547367679e-02 0.0000000000000000e+00  9.3467777862901221e-03 1.8126315027182156e-02 0.0000000000000000e+00  9.2230455252462692e-03 1.7336748770759577e-02 0.0000000000000000e+00  9.0669441048288387e-03 1.6570469885660761e-02 0.0000000000000000e+00  8.8801035895361095e-03 1.5828505537825072e-02 0.0000000000000000e+00  8.6638423037173687e-03 1.5113368797318246e-02 0.0000000000000000e+00  8.4196116463641016e-03 1.4425709366727634e-02 0.0000000000000000e+00  8.1493105521100919e-03 1.3766765871859390e-02 0.0000000000000000e+00  7.8543033375974899e-03 1.3137463174432890e-02 0.0000000000000000e+00  7.5363480298728551e-03 1.2538504454018551e-02 0.0000000000000000e+00  7.1967416560998632e-03 1.1971262794277467e-02 0.0000000000000000e+00  6.8372105320972662e-03 1.1436154104622167e-02 0.0000000000000000e+00  6.4592235863260537e-03 1.0934143201274945e-02 0.0000000000000000e+00  6.0640328933835421e-03 1.0464907389918109e-02 0.0000000000000000e+00  5.6533482752957704e-03 1.0029630584816781e-02 0.0000000000000000e+00  5.2282775285211547e-03 9.6284102952206435e-03 0.0000000000000000e+00  4.7905183929575516e-03 9.2611697010185727e-03 0.0000000000000000e+00  4.3411468718206345e-03 8.9288325258852861e-03 0.0000000000000000e+00  3.8813710763321457e-03 8.6319521282122464e-03 0.0000000000000000e+00  3.4127011087881644e-03 8.3694673863483511e-03 0.0000000000000000e+00  2.9361080442203936e-03 8.1421943674745562e-03 0.0000000000000000e+00  2.4528832068473135e-03 7.9500473413962637e-03 0.0000000000000000e+00  1.9642965866200580e-03 7.7932050298387826e-03 0.0000000000000000e+00  1.4712510369172308e-03 7.6712621504063097e-03 0.0000000000000000e+00  9.7530899905908831e-04 7.5850267937923321e-03 0.0000000000000000e+00  4.7710080613597969e-04 7.5344674406274620e-03 0.0000000000000000e+00  -2.1870075058242007e-05 7.5189117946396784e-03 0.0000000000000000e+00  -5.2071022914612294e-04 7.5386712065948344e-03 0.0000000000000000e+00  -1.0183800021598575e-03 7.5941879293004080e-03 0.0000000000000000e+00  -1.5135231936462018e-03 7.6851765866819471e-03 0.0000000000000000e+00  -2.0051994302622451e-03 7.8112561426164255e-03 0.0000000000000000e+00  -2.4921746768477968e-03 7.9723715063190759e-03 0.0000000000000000e+00  -2.9735361059564061e-03 8.1687247279568324e-03 0.0000000000000000e+00  -3.4478312910726202e-03 8.4000363601186619e-03 0.0000000000000000e+00  -3.9140829245719608e-03 8.6666099826776706e-03 0.0000000000000000e+00  -4.3709356219840375e-03 8.9678734292660319e-03 0.0000000000000000e+00  -4.8171023488954362e-03 9.3041040123407158e-03 0.0000000000000000e+00  -5.2516047195734269e-03 9.6742100700523224e-03 0.0000000000000000e+00  -5.6726948729274055e-03 1.0078818521855116e-02 0.0000000000000000e+00  -6.0794574808737192e-03 1.0517209757835756e-02 0.0000000000000000e+00  -6.4702618538163593e-03 1.0989056024057078e-02 0.0000000000000000e+00  -6.8436619005018033e-03 1.1493931852378245e-02 0.0000000000000000e+00  -7.1983551247769787e-03 1.2031358269942755e-02 0.0000000000000000e+00  -7.5326565070778324e-03 1.2600514990293292e-02 0.0000000000000000e+00  -7.8455353197869077e-03 1.3200424312435019e-02 0.0000000000000000e+00  -8.1347448400674940e-03 1.3830902366340301e-02 0.0000000000000000e+00  -8.3995026540216820e-03 1.4490552256860807e-02 0.0000000000000000e+00  -8.6378195717171143e-03 1.5178225368817116e-02 0.0000000000000000e+00  -8.8481059783635276e-03 1.5893610426771610e-02 0.0000000000000000e+00  -9.0289474290958273e-03 1.6635163675945738e-02 0.0000000000000000e+00  -9.1788974015159907e-03 1.7400458619270254e-02 0.0000000000000000e+00  -9.2966086778494168e-03 1.8188589037972831e-02 0.0000000000000000e+00  -9.3799576928137555e-03 1.8997570890700720e-02 0.0000000000000000e+00  -9.4286041352463143e-0