<?xml version="1.0"?>
<VTKFile type="UnstructuredGrid"  version="0.1"  >
<UnstructuredGrid>
<Piece  NumberOfPoints="16275" NumberOfCells="32468">
<Points>
<DataArray  type="Float64"  NumberOfComponents="3"  format="ascii">-0.5 0.5 0  0.5 0.5 0  0.5 -0.5 0  -0.5 -0.5 0  -1 1 0  1 1 0  1 -1 0  -1 -1 0  -0.4900000000000277 0.5 0  -0.4800000000000555 0.5 0  -0.4700000000000832 0.5 0  -0.4600000000001109 0.5 0  -0.4500000000001387 0.5 0  -0.4400000000001664 0.5 0  -0.4300000000001942 0.5 0  -0.4200000000002219 0.5 0  -0.4100000000002497 0.5 0  -0.4000000000002774 0.5 0  -0.3900000000003052 0.5 0  -0.3800000000003328 0.5 0  -0.3700000000003606 0.5 0  -0.3600000000003883 0.5 0  -0.3500000000004161 0.5 0  -0.3400000000004438 0.5 0  -0.3300000000004716 0.5 0  -0.3200000000004993 0.5 0  -0.3100000000005271 0.5 0  -0.3000000000005548 0.5 0  -0.2900000000005825 0.5 0  -0.2800000000006103 0.5 0  -0.2700000000006381 0.5 0  -0.2600000000006658 0.5 0  -0.2500000000006935 0.5 0  -0.2400000000007212 0.5 0  -0.230000000000749 0.5 0  -0.2200000000007767 0.5 0  -0.2100000000008044 0.5 0  -0.2000000000008322 0.5 0  -0.19000000000086 0.5 0  -0.1800000000008877 0.5 0  -0.1700000000009154 0.5 0  -0.1600000000009431 0.5 0  -0.1500000000009709 0.5 0  -0.1400000000009986 0.5 0  -0.1300000000010264 0.5 0  -0.1200000000010541 0.5 0  -0.1100000000010818 0.5 0  -0.1000000000011096 0.5 0  -0.09000000000113734 0.5 0  -0.08000000000116503 0.5 0  -0.07000000000119283 0.5 0  -0.06000000000122058 0.5 0  -0.05000000000124827 0.5 0  -0.04000000000127607 0.5 0  -0.03000000000130376 0.5 0  -0.02000000000133151 0.5 0  -0.01000000000135925 0.5 0  -1.376121439022882e-12 0.5 0  0.009999999998640763 0.5 0  0.01999999999866864 0.5 0  0.02999999999869629 0.5 0  0.03999999999872406 0.5 0  0.04999999999875182 0.5 0  0.05999999999877947 0.5 0  0.06999999999880724 0.5 0  0.079999999998835 0.5 0  0.08999999999886266 0.5 0  0.09999999999889042 0.5 0  0.1099999999989182 0.5 0  0.1199999999989459 0.5 0  0.1299999999989737 0.5 0  0.1399999999990014 0.5 0  0.1499999999990291 0.5 0  0.1599999999990568 0.5 0  0.1699999999990847 0.5 0  0.1799999999991124 0.5 0  0.1899999999991401 0.5 0  0.1999999999991678 0.5 0  0.2099999999991955 0.5 0  0.2199999999992234 0.5 0  0.2299999999992511 0.5 0  0.2399999999992788 0.5 0  0.2499999999993066 0.5 0  0.2599999999993342 0.5 0  0.269999999999362 0.5 0  0.2799999999993897 0.5 0  0.2899999999994175 0.5 0  0.2999999999994452 0.5 0  0.3099999999994729 0.5 0  0.3199999999995007 0.5 0  0.3299999999995284 0.5 0  0.3399999999995562 0.5 0  0.3499999999995839 0.5 0  0.3599999999996116 0.5 0  0.3699999999996393 0.5 0  0.379999999999667 0.5 0  0.3899999999996949 0.5 0  0.3999999999997226 0.5 0  0.4099999999997503 0.5 0  0.419999999999778 0.5 0  0.4299999999998058 0.5 0  0.4399999999998336 0.5 0  0.4499999999998613 0.5 0  0.4599999999998891 0.5 0  0.4699999999999167 0.5 0  0.4799999999999445 0.5 0  0.4899999999999722 0.5 0  0.5 0.4900000000000277 0  0.5 0.4800000000000555 0  0.5 0.4700000000000832 0  0.5 0.4600000000001109 0  0.5 0.4500000000001387 0  0.5 0.4400000000001664 0  0.5 0.4300000000001942 0  0.5 0.4200000000002219 0  0.5 0.4100000000002497 0  0.5 0.4000000000002774 0  0.5 0.3900000000003052 0  0.5 0.3800000000003328 0  0.5 0.3700000000003606 0  0.5 0.3600000000003883 0  0.5 0.3500000000004161 0  0.5 0.3400000000004438 0  0.5 0.3300000000004716 0  0.5 0.3200000000004993 0  0.5 0.3100000000005271 0  0.5 0.3000000000005548 0  0.5 0.2900000000005825 0  0.5 0.2800000000006103 0  0.5 0.2700000000006381 0  0.5 0.2600000000006658 0  0.5 0.2500000000006935 0  0.5 0.2400000000007212 0  0.5 0.230000000000749 0  0.5 0.2200000000007767 0  0.5 0.2100000000008044 0  0.5 0.2000000000008322 0  0.5 0.19000000000086 0  0.5 0.1800000000008877 0  0.5 0.1700000000009154 0  0.5 0.1600000000009431 0  0.5 0.1500000000009709 0  0.5 0.1400000000009986 0  0.5 0.1300000000010264 0  0.5 0.1200000000010541 0  0.5 0.1100000000010818 0  0.5 0.1000000000011096 0  0.5 0.09000000000113734 0  0.5 0.08000000000116503 0  0.5 0.07000000000119283 0  0.5 0.06000000000122058 0  0.5 0.05000000000124827 0  0.5 0.04000000000127607 0  0.5 0.03000000000130376 0  0.5 0.02000000000133151 0  0.5 0.01000000000135925 0  0.5 1.376121439022882e-12 0  0.5 -0.009999999998640763 0  0.5 -0.01999999999866864 0  0.5 -0.02999999999869629 0  0.5 -0.03999999999872406 0  0.5 -0.04999999999875182 0  0.5 -0.05999999999877947 0  0.5 -0.06999999999880724 0  0.5 -0.079999999998835 0  0.5 -0.08999999999886266 0  0.5 -0.09999999999889042 0  0.5 -0.1099999999989182 0  0.5 -0.1199999999989459 0  0.5 -0.1299999999989737 0  0.5 -0.1399999999990014 0  0.5 -0.1499999999990291 0  0.5 -0.1599999999990568 0  0.5 -0.1699999999990847 0  0.5 -0.1799999999991124 0  0.5 -0.1899999999991401 0  0.5 -0.1999999999991678 0  0.5 -0.2099999999991955 0  0.5 -0.2199999999992234 0  0.5 -0.2299999999992511 0  0.5 -0.2399999999992788 0  0.5 -0.2499999999993066 0  0.5 -0.2599999999993342 0  0.5 -0.269999999999362 0  0.5 -0.2799999999993897 0  0.5 -0.2899999999994175 0  0.5 -0.2999999999994452 0  0.5 -0.3099999999994729 0  0.5 -0.3199999999995007 0  0.5 -0.3299999999995284 0  0.5 -0.3399999999995562 0  0.5 -0.3499999999995839 0  0.5 -0.3599999999996116 0  0.5 -0.3699999999996393 0  0.5 -0.379999999999667 0  0.5 -0.3899999999996949 0  0.5 -0.3999999999997226 0  0.5 -0.4099999999997503 0  0.5 -0.419999999999778 0  0.5 -0.4299999999998058 0  0.5 -0.4399999999998336 0  0.5 -0.4499999999998613 0  0.5 -0.4599999999998891 0  0.5 -0.4699999999999167 0  0.5 -0.4799999999999445 0  0.5 -0.4899999999999722 0  0.4900000000000277 -0.5 0  0.4800000000000555 -0.5 0  0.4700000000000832 -0.5 0  0.4600000000001109 -0.5 0  0.4500000000001387 -0.5 0  0.4400000000001664 -0.5 0  0.4300000000001942 -0.5 0  0.4200000000002219 -0.5 0  0.4100000000002497 -0.5 0  0.4000000000002774 -0.5 0  0.3900000000003052 -0.5 0  0.3800000000003328 -0.5 0  0.3700000000003606 -0.5 0  0.3600000000003883 -0.5 0  0.3500000000004161 -0.5 0  0.3400000000004438 -0.5 0  0.3300000000004716 -0.5 0  0.3200000000004993 -0.5 0  0.3100000000005271 -0.5 0  0.3000000000005548 -0.5 0  0.2900000000005825 -0.5 0  0.2800000000006103 -0.5 0  0.2700000000006381 -0.5 0  0.2600000000006658 -0.5 0  0.2500000000006935 -0.5 0  0.2400000000007212 -0.5 0  0.230000000000749 -0.5 0  0.2200000000007767 -0.5 0  0.2100000000008044 -0.5 0  0.2000000000008322 -0.5 0  0.19000000000086 -0.5 0  0.1800000000008877 -0.5 0  0.1700000000009154 -0.5 0  0.1600000000009431 -0.5 0  0.1500000000009709 -0.5 0  0.1400000000009986 -0.5 0  0.1300000000010264 -0.5 0  0.1200000000010541 -0.5 0  0.1100000000010818 -0.5 0  0.1000000000011096 -0.5 0  0.09000000000113734 -0.5 0  0.08000000000116503 -0.5 0  0.07000000000119283 -0.5 0  0.06000000000122058 -0.5 0  0.05000000000124827 -0.5 0  0.04000000000127607 -0.5 0  0.03000000000130376 -0.5 0  0.02000000000133151 -0.5 0  0.01000000000135925 -0.5 0  1.376121439022882e-12 -0.5 0  -0.009999999998640763 -0.5 0  -0.01999999999866864 -0.5 0  -0.02999999999869629 -0.5 0  -0.03999999999872406 -0.5 0  -0.04999999999875182 -0.5 0  -0.05999999999877947 -0.5 0  -0.06999999999880724 -0.5 0  -0.079999999998835 -0.5 0  -0.08999999999886266 -0.5 0  -0.09999999999889042 -0.5 0  -0.1099999999989182 -0.5 0  -0.1199999999989459 -0.5 0  -0.1299999999989737 -0.5 0  -0.1399999999990014 -0.5 0  -0.1499999999990291 -0.5 0  -0.1599999999990568 -0.5 0  -0.1699999999990847 -0.5 0  -0.1799999999991124 -0.5 0  -0.1899999999991401 -0.5 0  -0.1999999999991678 -0.5 0  -0.2099999999991955 -0.5 0  -0.2199999999992234 -0.5 0  -0.2299999999992511 -0.5 0  -0.2399999999992788 -0.5 0  -0.2499999999993066 -0.5 0  -0.2599999999993342 -0.5 0  -0.269999999999362 -0.5 0  -0.2799999999993897 -0.5 0  -0.2899999999994175 -0.5 0  -0.2999999999994452 -0.5 0  -0.3099999999994729 -0.5 0  -0.3199999999995007 -0.5 0  -0.3299999999995284 -0.5 0  -0.3399999999995562 -0.5 0  -0.3499999999995839 -0.5 0  -0.3599999999996116 -0.5 0  -0.3699999999996393 -0.5 0  -0.379999999999667 -0.5 0  -0.3899999999996949 -0.5 0  -0.3999999999997226 -0.5 0  -0.4099999999997503 -0.5 0  -0.419999999999778 -0.5 0  -0.4299999999998058 -0.5 0  -0.4399999999998336 -0.5 0  -0.4499999999998613 -0.5 0  -0.4599999999998891 -0.5 0  -0.4699999999999167 -0.5 0  -0.4799999999999445 -0.5 0  -0.4899999999999722 -0.5 0  -0.5 -0.4900000000000277 0  -0.5 -0.4800000000000555 0  -0.5 -0.4700000000000832 0  -0.5 -0.4600000000001109 0  -0.5 -0.4500000000001387 0  -0.5 -0.4400000000001664 0  -0.5 -0.4300000000001942 0  -0.5 -0.4200000000002219 0  -0.5 -0.4100000000002497 0  -0.5 -0.4000000000002774 0  -0.5 -0.3900000000003052 0  -0.5 -0.3800000000003328 0  -0.5 -0.3700000000003606 0  -0.5 -0.3600000000003883 0  -0.5 -0.3500000000004161 0  -0.5 -0.3400000000004438 0  -0.5 -0.3300000000004716 0  -0.5 -0.3200000000004993 0  -0.5 -0.3100000000005271 0  -0.5 -0.3000000000005548 0  -0.5 -0.2900000000005825 0  -0.5 -0.2800000000006103 0  -0.5 -0.2700000000006381 0  -0.5 -0.2600000000006658 0  -0.5 -0.2500000000006935 0  -0.5 -0.2400000000007212 0  -0.5 -0.230000000000749 0  -0.5 -0.2200000000007767 0  -0.5 -0.2100000000008044 0  -0.5 -0.2000000000008322 0  -0.5 -0.19000000000086 0  -0.5 -0.1800000000008877 0  -0.5 -0.1700000000009154 0  -0.5 -0.1600000000009431 0  -0.5 -0.1500000000009709 0  -0.5 -0.1400000000009986 0  -0.5 -0.1300000000010264 0  -0.5 -0.1200000000010541 0  -0.5 -0.1100000000010818 0  -0.5 -0.1000000000011096 0  -0.5 -0.09000000000113734 0  -0.5 -0.08000000000116503 0  -0.5 -0.07000000000119283 0  -0.5 -0.06000000000122058 0  -0.5 -0.05000000000124827 0  -0.5 -0.04000000000127607 0  -0.5 -0.03000000000130376 0  -0.5 -0.02000000000133151 0  -0.5 -0.01000000000135925 0  -0.5 -1.376121439022882e-12 0  -0.5 0.009999999998640763 0  -0.5 0.01999999999866864 0  -0.5 0.02999999999869629 0  -0.5 0.03999999999872406 0  -0.5 0.04999999999875182 0  -0.5 0.05999999999877947 0  -0.5 0.06999999999880724 0  -0.5 0.079999999998835 0  -0.5 0.08999999999886266 0  -0.5 0.09999999999889042
[...]
<PointData  Vectors="f_27-0"> 
<DataArray  type="Float64"  Name="f_27-0"  NumberOfComponents="3" format="ascii">4.9602176476224748e-04 4.3535210841256111e-02 0.0000000000000000e+00  -8.3055198005250531e-04 4.3502717965581389e-02 0.0000000000000000e+00  8.5247955198236662e-05 4.1283707150378213e-02 0.0000000000000000e+00  9.5847838471009846e-05 4.1257847213370960e-02 0.0000000000000000e+00  -2.9866494542718008e-03 8.5188796689589386e-03 0.0000000000000000e+00  3.0687163164132042e-03 8.4505330069996956e-03 0.0000000000000000e+00  -2.8248069410407002e-03 8.3750405937606364e-03 0.0000000000000000e+00  2.8932486898955293e-03 8.3025833837621216e-03 0.0000000000000000e+00  1.5333126931267797e-03 4.2924715214667557e-02 0.0000000000000000e+00  2.5374903837606113e-03 4.2252620130053542e-02 0.0000000000000000e+00  3.5048936325325114e-03 4.1521998926558182e-02 0.0000000000000000e+00  4.4320174910034548e-03 4.0736217533318089e-02 0.0000000000000000e+00  5.3156688571584405e-03 3.9898998938381079e-02 0.0000000000000000e+00  6.1529891325142619e-03 3.9014313538511911e-02 0.0000000000000000e+00  6.9413892145381659e-03 3.8086424908752095e-02 0.0000000000000000e+00  7.6786832926991873e-03 3.7119744481182576e-02 0.0000000000000000e+00  8.3630092601010876e-03 3.6118771863368621e-02 0.0000000000000000e+00  8.9928626572760555e-03 3.5088210584600911e-02 0.0000000000000000e+00  9.5671633292974123e-03 3.4032766641700372e-02 0.0000000000000000e+00  1.0085125622699909e-02 3.2957080479730477e-02 0.0000000000000000e+00  1.0546327103534078e-02 3.1865856247139536e-02 0.0000000000000000e+00  1.0950697973455759e-02 3.0763637071909627e-02 0.0000000000000000e+00  1.1298459137466568e-02 2.9654943788079945e-02 0.0000000000000000e+00  1.1590175108699785e-02 2.8544044474939616e-02 0.0000000000000000e+00  1.1826641893058784e-02 2.7435097834816371e-02 0.0000000000000000e+00  1.2008926665151494e-02 2.6332105344955017e-02 0.0000000000000000e+00  1.2138295782815552e-02 2.5238767040409504e-02 0.0000000000000000e+00  1.2216235819510781e-02 2.4158572445283417e-02 0.0000000000000000e+00  1.2244377756740707e-02 2.3094847217718845e-02 0.0000000000000000e+00  1.2224518476919889e-02 2.2050558994650426e-02 0.0000000000000000e+00  1.2158570085359232e-02 2.1028511807869351e-02 0.0000000000000000e+00  1.2048496534211080e-02 2.0031271304833561e-02 0.0000000000000000e+00  1.1896387111208362e-02 1.9061078627389396e-02 0.0000000000000000e+00  1.1704323527400771e-02 1.8120011521331063e-02 0.0000000000000000e+00  1.1474452618851416e-02 1.7209876092077348e-02 0.0000000000000000e+00  1.1208893439026521e-02 1.6332292618517874e-02 0.0000000000000000e+00  1.0909801947335459e-02 1.5488661091981642e-02 0.0000000000000000e+00  1.0579279322408919e-02 1.4680181526270188e-02 0.0000000000000000e+00  1.0219369656444427e-02 1.3907886184290478e-02 0.0000000000000000e+00  9.8321319286568745e-03 1.3172654938748397e-02 0.0000000000000000e+00  9.4195198275369933e-03 1.2475214927384152e-02 0.0000000000000000e+00  8.9834533843359005e-03 1.1816115620902989e-02 0.0000000000000000e+00  8.5257760962808050e-03 1.1195843179103068e-02 0.0000000000000000e+00  8.0482671240789810e-03 1.0614738066186843e-02 0.0000000000000000e+00  7.5526400166195801e-03 1.0073105250791331e-02 0.0000000000000000e+00  7.0405215094134057e-03 9.5711027853641502e-03 0.0000000000000000e+00  6.5134909457924533e-03 9.1088575634893157e-03 0.0000000000000000e+00  5.9730437102653725e-03 8.6864606762494384e-03 0.0000000000000000e+00  5.4206133642948733e-03 8.3039218905586291e-03 0.0000000000000000e+00  4.8575700036638646e-03 7.9612316436124941e-03 0.0000000000000000e+00  4.2852177444009541e-03 7.6583753927504591e-03 0.0000000000000000e+00  3.7048364761018658e-03 7.3952828798256815e-03 0.0000000000000000e+00  3.1176224296574008e-03 7.1719093070436750e-03 0.0000000000000000e+00  2.5247471953724308e-03 6.9881735441042099e-03 0.0000000000000000e+00  1.9273632708625857e-03 6.8440464447228110e-03 0.0000000000000000e+00  1.3265639278235012e-03 6.7394635980258895e-03 0.0000000000000000e+00  7.2343691254173677e-04 6.6743751112290318e-03 0.0000000000000000e+00  1.1904660016070317e-04 6.6487822011972522e-03 0.0000000000000000e+00  -4.8554438860553965e-04 6.6626615872687036e-03 0.0000000000000000e+00  -1.0892701567147645e-03 6.7160019523958576e-03 0.0000000000000000e+00  -1.6910836279578130e-03 6.8088397504645062e-03 0.0000000000000000e+00  -2.2898934211753115e-03 6.9412169847171707e-03 0.0000000000000000e+00  -2.8846221527518076e-03 7.1131799009473027e-03 0.0000000000000000e+00  -3.4741319882751450e-03 7.3247657640013722e-03 0.0000000000000000e+00  -4.0572792396461402e-03 7.5760507393909243e-03 0.0000000000000000e+00  -4.6328673991415338e-03 7.8670873802784876e-03 0.0000000000000000e+00  -5.1996674163065255e-03 8.1979334904910117e-03 0.0000000000000000e+00  -5.7563884250226623e-03 8.5686121955851659e-03 0.0000000000000000e+00  -6.3016748744233551e-03 8.9791700122289746e-03 0.0000000000000000e+00  -6.8341411301689053e-03 9.4295646280030451e-03 0.0000000000000000e+00  -7.3522916323588644e-03 9.9197589833921289e-03 0.0000000000000000e+00  -7.8546042677275843e-03 1.0449656392878853e-02 0.0000000000000000e+00  -8.3394701814795465e-03 1.1019099094998199e-02 0.0000000000000000e+00  -8.8052102374897197e-03 1.1627855498393919e-02 0.0000000000000000e+00  -9.2500840770391567e-03 1.2275601686188754e-02 0.0000000000000000e+00  -9.6722462721036215e-03 1.2961931158578572e-02 0.0000000000000000e+00  -1.0069850587302599e-02 1.3686315454486592e-02 0.0000000000000000e+00  -1.0440913226470318e-02 1.4448091414228842e-02 0.0000000000000000e+00  -1.0783448441322620e-02 1.5246475091747294e-02 0.0000000000000000e+00  -1.1095406822122613e-02 1.6080490658460522e-02 0.0000000000000000e+00  -1.1374661872374093e-02 1.6948984281364130e-02 0.0000000000000000e+00  -1.1619116168186993e-02 1.7850688821559851e-02 0.0000000000000000e+00  -1.1826592718997924e-02 1.8784065997169155e-02 0.0000000000000000e+00  -1.1994974158181142e-02 1.9747373778180449e-02 0.0000000000000000e+00  -1.2122086595949965e-02 2.0738675651963964e-02 0.0000000000000000e+00  -1.2205869999114815e-02 2.1755730198494045e-02 0.0000000000000000e+00  -1.2244253992789526e-02 2.2796184474706438e-02 0.0000000000000000e+00  -1.2235262807467432e-02 2.3857304600518481e-02 0.0000000000000000e+00  -1.2177058683845448e-02 2.4936182554570609e-02 0.0000000000000000e+00  -1.2067869829173234e-02 2.6029644179271220e-02 0.0000000000000000e+00  -1.1906135653547645e-02 2.7134237331091597e-02 0.0000000000000000e+00  -1.1690449405544078e-02 2.8246370849113290e-02 0.0000000000000000e+00  -1.1419618268074571e-02 2.9362048646140705e-02 0.0000000000000000e+00  -1.1092686089619780e-02 3.0477284102919052e-02 0.0000000000000000e+00  -1.0708946441100089e-02 3.1587726902720180e-02 0.0000000000000000e+00  -1.0268003938757143e-02 3.2688984809372774e-02 0.0000000000000000e+00  -9.7697605940705173e-03 3.3776399646645229e-02 0.0000000000000000e+00  -9.2144629616629174e-03 3.4845341024096511e-02 0.0000000000000000e+00  -8.6026785959998457e-03 3.5891047021680771e-02 0.0000000000000000e+00  -7.9353213368759008e-03 3.6908815440568038e-02 0.0000000000000000e+00  -7.2137570444371401e-03 3.7893865339347271e-02 0.0000000000000000e+00  -6.4396417357720764e-03 3.8841548512947868e-02 0.0000000000000000e+00  -5.6150262694084499e-03 3.9747318357832205e-02 0.0000000000000000e+00  -4.7423298187488014e-03 4.0606746969427669e-02 0.0000000000000000e+00  -3.8242808564975615e-03 4.1415777984822329e-02 0.0000000000000000e+00  -2.8639816498708592e-03 4.2170436547378481e-02 0.0000000000000000e+00  -1.8648787082260890e-03 4.2867158179437863e-02 0.0000000000000000e+00  -1.0497816703411934e-03 4.4577784866960936e-02 0.0000000000000000e+00  -1.2837264659995918e-03 4.5703551383663471e-02 0.0000000000000000e+00  -1.5329013877009650e-03 4.6882856988230373e-02 0.0000000000000000e+00  -1.7979292904856550e-03 4.8118743561082693e-02 0.0000000000000000e+00  -2.0794373469350193e-03 4.9414485312672486e-02 0.0000000000000000e+00  -2.3780323054993619e-03 5.0773517764519889e-02 0.0000000000000000e+00  -2.6944130285510028e-03 5.2199459572716683e-02 0.0000000000000000e+00  -3.0291943510807884e-03 5.3696446594395771e-02 0.0000000000000000e+00  -3.3831145212708034e-03 5.5268445685521535e-02 0.0000000000000000e+00  -3.7566792292745579e-03 5.6919817720025447e-02 0.0000000000000000e+00  -4.1504712925063882e-03 5.8655343007318908e-02 0.0000000000000000e+00  -4.5650912272988163e-03 6.0479752452973864e-02 0.0000000000000000e+00  -5.0008946886323687e-03 6.2398131776293296e-02 0.0000000000000000e+00  -5.4580464907215990e-03 6.4415541218951433e-02 0.0000000000000000e+00  -5.9363686334150036e-03 6.6537335917663504e-02 0.0000000000000000e+00  -6.4353036265135371e-03 6.8768785877673724e-02 0.0000000000000000e+00  -6.9536452921289439e-03 7.1114974772980483e-02 0.0000000000000000e+00  -7.4893926682150303e-03 7.3581040474406972e-02 0.0000000000000000e+00  -8.0391917879801700e-03 7.6171160820225611e-02 0.0000000000000000e+00  -8.5981946465329504e-03 7.8889047010060762e-02 0.0000000000000000e+00  -9.1595753028041287e-03 8.1737720375121420e-02 0.0000000000000000e+00  -9.7135318850107549e-03 8.4718297177998267e-02 0.0000000000000000e+00  -1.0247133864058332e-02 8.7830495289066182e-02 0.0000000000000000e+00  -1.0743079714782791e-02 9.1071040351951210e-02 0.0000000000000000e+00  -1.1178905854552418e-02 9.4434601278600608e-02 0.0000000000000000e+00  -1.1526308251358168e-02 9.7910958758270633e-02 0.0000000000000000e+00  -1.1749892247747393e-02 1.0148614912397147e-01 0.0000000000000000e+00  -1.1807431091182504e-02 1.0514029027580402e-01 0.0000000000000000e+00  -1.1648198887327236e-02 1.0884798271069381e-01 0.0000000000000000e+00  -1.1216621116372423e-02 1.1257641946649458e-01 0.0000000000000000e+00  -1.0450667286901078e-02 1.1628544884909849e-01 0.0000000000000000e+00  -9.2878026324278926e-03 1.1992718485754712e-01 0.0000000000000000e+00  -7.6694455351872907e-03 1.2344672800647330e-01 0.0000000000000000e+00  -5.5496823243436459e-03 1.2678241915117971e-01 0.0000000000000000e+00  -2.9046129743069897e-03 1.2986827839620671e-01 0.0000000000000000e+00  2.5180546151345611e-04 1.3263655891648274e-01 0.0000000000000000e+00  3.8567982942784057e-03 1.3502172926321540e-01 0.0000000000000000e+00  7.7783159554944145e-03 1.3696835358489171e-01 0.0000000000000000e+00  1.1805717976362580e-02 1.3843270591994078e-01 0.0000000000000000e+00  1.5640295391327406e-02 1.3939719269348674e-01 0.0000000000000000e+00  1.8904687968407174e-02 1.3987152140069090e-01 0.0000000000000000e+00  2.1161877796994511e-02 1.3990698022854364e-01 0.0000000000000000e+00  2.1974841938393979e-02 1.3959089712017084e-01 0.0000000000000000e+00  2.0975647242058890e-02 1.3905103123833237e-01 0.0000000000000000e+00  1.7973118728842375e-02 1.3844470502373324e-01 0.0000000000000000e+00  1.3052197369923579e-02 1.3794048133802708e-01 0.0000000000000000e+00  6.6455550759991922e-03 1.3769451457503185e-01 0.0000000000000000e+00  -4.9326247968551327e-04 1.3782019386408120e-01 0.0000000000000000e+00  -7.4081871472341894e-03 1.3836977895207800e-01 0.0000000000000000e+00  -1.3161991893766774e-02 1.3930409961590548e-01 0.0000000000000000e+00  -1.7079776768136525e-02 1.4048427083626341e-01 0.0000000000000000e+00  -1.8930707981033617e-02 1.4169425965095719e-01 0.0000000000000000e+00  -1.8914042761892319e-02 1.4270010026736535e-01 0.0000000000000000e+00  -1.7461043194066144e-02 1.4331402649197481e-01 0.0000000000000000e+00  -1.5043270534475172e-02 1.4341919297330691e-01 0.0000000000000000e+00  -1.2080587051139515e-02 1.4296262980726585e-01 0.0000000000000000e+00  -8.9086357569966978e-03 1.4194075960963917e-01 0.0000000000000000e+00  -5.7677307292031818e-03 1.4038579484187538e-01 0.0000000000000000e+00  -2.8211461212651113e-03 1.3835049583669512e-01 0.0000000000000000e+00  -1.6635422692090602e-04 1.3589936962790286e-01 0.0000000000000000e+00  2.1455309670141481e-03 1.3310087135840740e-01 0.0000000000000000e+00  4.0975028372164726e-03 1.3002285394817736e-01 0.0000000000000000e+00  5.6959764520614657e-03 1.2672979494311251e-01 0.0000000000000000e+00  6.9620447805215100e-03 1.2327981831065873e-01 0.0000000000000000e+00  7.9255065661431503e-03 1.1972579821378880e-01 0.0000000000000000e+00  8.6209566707783764e-03 1.1611300743856168e-01 0.0000000000000000e+00  9.0840479309922447e-03 1.1248050990140888e-01 0.0000000000000000e+00  9.3498489407959958e-03 1.0886157199377328e-01 0.0000000000000000e+00  9.4506954953091690e-03 1.0528317706981681e-01 0.0000000000000000e+00  9.4168179598638855e-03 1.0176765784048626e-01 0.0000000000000000e+00  9.2745663956774315e-03 9.8331943917288694e-02 0.0000000000000000e+00  9.0470759345322675e-03 9.4990102484888692e-02 0.0000000000000000e+00  8.7540796376555669e-03 9.1751407436291205e-02 0.0000000000000000e+00  8.4127995614360091e-03 8.8623075378347321e-02 0.0000000000000000e+00  8.0367775866422748e-03 8.5609276798861336e-02 0.0000000000000000e+00  7.6370743525088422e-03 8.2712627805864816e-02 0.0000000000000000e+00  7.2233085865341948e-03 7.9933244430068273e-02 0.0000000000000000e+00  6.8020302266846916e-03 7.7270883345485125e-02 0.0000000000000000e+00  6.3793956619251808e-03 7.4723456735704796e-02 0.0000000000000000e+00  5.9596708261659935e-03 7.2288189797372768e-02 0.0000000000000000e+00  5.5461584764159733e-03 6.9962054597065004e-02 0.0000000000000000e+00  5.1413869028778380e-03 6.7741248305960178e-02 0.0000000000000000e+00  4.7471849361885744e-03 6.5621789011046788e-02 0.0000000000000000e+00  4.3649640782943309e-03 6.3599595021806871e-02 0.0000000000000000e+00  3.9954782001272735e-03 6.1670345927378675e-02 0.0000000000000000e+00  3.6395114079003335e-03 5.9829919643788025e-02 0.0000000000000000e+00  3.2974440206352726e-03 5.8073999490372979e-02 0.0000000000000000e+00  2.9693738202131721e-03 5.6398625471957446e-02 0.0000000000000000e+00  2.6553831437414951e-03 5.4799701300784806e-02 0.0000000000000000e+00  2.3554235049434206e-03 5.3273460424090979e-02 0.0000000000000000e+00  2.0694409800769051e-03 5.1816241974452802e-02 0.0000000000000000e+00  1.7972487017699317e-03 5.0424461951609940e-02 0.0000000000000000e+00  1.5386128102102719e-03 4.9094896936990741e-02 0.0000000000000000e+00  1.2932434315874053e-03 4.7824330282342849e-02 0.0000000000000000e+00  1.0610147597579988e-03 4.6609736310339982e-02 0.0000000000000000e+00  8.4149577578791540e-04 4.5448362689317102e-02 0.0000000000000000e+00  6.3444691931354715e-04 4.4337504130776341e-02 0.0000000000000000e+00  4.3962645806583248e-04 4.3274641204460985e-02 0.0000000000000000e+00  2.5664926028083764e-04 4.2257435117343561e-02 0.0000000000000000e+00  1.0241073448380518e-03 4.0718215770421264e-02 0.0000000000000000e+00  1.9330437610388207e-03 4.0098624420919986e-02 0.0000000000000000e+00  2.8090727233159494e-03 3.9427540688895181e-02 0.0000000000000000e+00  3.6492341957459810e-03 3.8707864097607465e-02 0.0000000000000000e+00  4.4509116375942570e-03 3.7942725510443170e-02 0.0000000000000000e+00  5.2116477576847533e-03 3.7135547006616219e-02 0.0000000000000000e+00  5.9292957975948168e-03 3.6289869661483128e-02 0.0000000000000000e+00  6.6019296702916064e-03 3.5409496783755906e-02 0.0000000000000000e+00  7.2279350385567320e-03 3.4498243526131074e-02 0.0000000000000000e+00  7.8060125432149454e-03 3.3560082958495899e-02 0.0000000000000000e+00  8.3351125787432898e-03 3.2599057431169386e-02 0.0000000000000000e+00  8.8144762687734565e-03 3.1619188605939687e-02 0.0000000000000000e+00  9.2436397159839211e-03 3.0624503684854726e-02 0.0000000000000000e+00  9.6223932842234624e-03 2.9618998930694505e-02 0.0000000000000000e+00  9.9508539950326508e-03 2.8606537094719133e-02 0.0000000000000000e+00  1.0229318882691116e-02 2.7590943290143610e-02 0.0000000000000000e+00  1.0458347480267229e-02 2.6575906829368209e-02 0.0000000000000000e+00  1.0638736934061355e-02 2.5564960778229628e-02 0.0000000000000000e+00  1.0771431923523540e-02 2.4561438558146839e-02 0.0000000000000000e+00  1.0857576014710929e-02 2.3568561784188782e-02 0.0000000000000000e+00  1.0898479083717137e-02 2.2589343144282500e-02 0.0000000000000000e+00  1.0895569673529863e-02 2.1626566537914359e-02 0.0000000000000000e+00  1.0850405692764071e-02 2.0682864887682496e-02 0.0000000000000000e+00  1.0764629236978358e-02 1.9760608213724645e-02 0.0000000000000000e+00  1.0639967021012059e-02 1.8862013626124538e-02 0.0000000000000000e+00  1.0478167918595514e-02 1.7989094366718691e-02 0.0000000000000000e+00  1.0281075648569109e-02 1.7143647988231855e-02 0.0000000000000000e+00  1.0050512379381196e-02 1.6327269352295032e-02 0.0000000000000000e+00  9.7883405776973357e-03 1.5541469280497556e-02 0.0000000000000000e+00  9.4963996848949628e-03 1.4787469126816454e-02 0.0000000000000000e+00  9.1765131094316381e-03 1.4066382748038082e-02 0.0000000000000000e+00  8.8305111459499094e-03 1.3379186293470150e-02 0.0000000000000000e+00  8.4601568142596770e-03 1.2726701710876935e-02 0.0000000000000000e+00  8.0671862414502526e-03 1.2109632664251467e-02 0.0000000000000000e+00  7.6533035151600632e-03 1.1528573743472820e-02 0.0000000000000000e+00  7.2201541287076803e-03 1.0984012548796640e-02 0.0000000000000000e+00  6.7693286507160104e-03 1.0476338274633625e-02 0.0000000000000000e+00  6.3023766389058286e-03 1.0005877158224808e-02 0.0000000000000000e+00  5.8207906675691286e-03 9.5728772761341039e-03 0.0000000000000000e+00  5.3260179381986739e-03 9.1775157992134010e-03 0.0000000000000000e+00  4.8194425302130707e-03 8.8199603223690325e-03 0.0000000000000000e+00  4.3024027355592397e-03 8.5003309658064630e-03 0.0000000000000000e+00  3.7762045933565731e-03 8.2186368971761316e-03 0.0000000000000000e+00  3.2421140747537773e-03 7.9749509441199851e-03 0.0000000000000000e+00  2.7013398775083148e-03 7.7692989036639310e-03 0.0000000000000000e+00  2.1550805226188507e-03 7.6016784490066320e-03 0.0000000000000000e+00  1.6044932808443348e-03 7.4720885103854908e-03 0.0000000000000000e+00  1.0507338971196586e-03 7.3805539635931278e-03 0.0000000000000000e+00  4.9490112608693078e-04 7.3270589392659064e-03 0.0000000000000000e+00  -6.1869373620820737e-05 7.3115838571986211e-03 0.0000000000000000e+00  -6.1847834202030866e-04 7.3341322164080782e-03 0.0000000000000000e+00  -1.1738157773842654e-03 7.3947206896697809e-03 0.0000000000000000e+00  -1.7267664928976275e-03 7.4933450808688084e-03 0.0000000000000000e+00  -2.2762008044780787e-03 7.6299907864741780e-03 0.0000000000000000e+00  -2.8209814132465114e-03 7.8046504422857182e-03 0.0000000000000000e+00  -3.3599368954066542e-03 8.0173186584373227e-03 0.0000000000000000e+00  -3.8918658905022106e-03 8.2679827094185275e-03 0.0000000000000000e+00  -4.4155449529659652e-03 8.5566225567070622e-03 0.0000000000000000e+00  -4.9297052930766310e-03 8.8831681586486362e-03 0.0000000000000000e+00  -5.4330386137763790e-03 9.2475454097208157e-03 0.0000000000000000e+00  -5.9241932143607361e-03 9.6496098552901165e-03 0.0000000000000000e+00  -6.4017609191854667e-03 1.0089226902692736e-02 0.0000000000000000e+00  -6.8642940701652494e-03 1.0566176964950312e-02 0.0000000000000000e+00  -7.3102857753041999e-03 1.1080186842617258e-02 0.0000000000000000e+00  -7.7381795657828177e-03 1.1630928026696510e-02 0.0000000000000000e+00  -8.1463842096240781e-03 1.2217972565260526e-02 0.0000000000000000e+00  -8.5332306440890574e-03 1.2840775199073754e-02 0.0000000000000000e+00  -8.8970345057207325e-03 1.3498723176487305e-02 0.0000000000000000e+00  -9.2360413153407192e-03 1.4191106124464191e-02 0.0000000000000000e+00  -9.5484947128942673e-03 1.4917036249360903e-02 0.0000000000000000e+00  -9.8325791125900217e-03 1.5675503279194404e-02 0.0000000000000000e+00  -1.0086478871545054e-02 1.6465410183399289e-02 0.0000000000000000e+00  -1.0308347705805859e-02 1.7285385792945852e-02 0.0000000000000000e+00  -1.0496372804730415e-02 1.8133944085779678e-02 0.0000000000000000e+00  -1.0648731751419848e-02 1.9009437397430551e-02 0.0000000000000000e+00  -1.0763625774286368e-02 1.9909997022060463e-02 0.0000000000000000e+00  -1.0839334457526269e-