<?xml version="1.0"?>
<VTKFile type="UnstructuredGrid"  version="0.1"  >
<UnstructuredGrid>
<Piece  NumberOfPoints="16275" NumberOfCells="32468">
<Points>
<DataArray  type="Float64"  NumberOfComponents="3"  format="ascii">-0.5 0.5 0  0.5 0.5 0  0.5 -0.5 0  -0.5 -0.5 0  -1 1 0  1 1 0  1 -1 0  -1 -1 0  -0.4900000000000277 0.5 0  -0.4800000000000555 0.5 0  -0.4700000000000832 0.5 0  -0.4600000000001109 0.5 0  -0.4500000000001387 0.5 0  -0.4400000000001664 0.5 0  -0.4300000000001942 0.5 0  -0.4200000000002219 0.5 0  -0.4100000000002497 0.5 0  -0.4000000000002774 0.5 0  -0.3900000000003052 0.5 0  -0.3800000000003328 0.5 0  -0.3700000000003606 0.5 0  -0.3600000000003883 0.5 0  -0.3500000000004161 0.5 0  -0.3400000000004438 0.5 0  -0.3300000000004716 0.5 0  -0.3200000000004993 0.5 0  -0.3100000000005271 0.5 0  -0.3000000000005548 0.5 0  -0.2900000000005825 0.5 0  -0.2800000000006103 0.5 0  -0.2700000000006381 0.5 0  -0.2600000000006658 0.5 0  -0.2500000000006935 0.5 0  -0.2400000000007212 0.5 0  -0.230000000000749 0.5 0  -0.2200000000007767 0.5 0  -0.2100000000008044 0.5 0  -0.2000000000008322 0.5 0  -0.19000000000086 0.5 0  -0.1800000000008877 0.5 0  -0.1700000000009154 0.5 0  -0.1600000000009431 0.5 0  -0.1500000000009709 0.5 0  -0.1400000000009986 0.5 0  -0.1300000000010264 0.5 0  -0.1200000000010541 0.5 0  -0.1100000000010818 0.5 0  -0.1000000000011096 0.5 0  -0.09000000000113734 0.5 0  -0.08000000000116503 0.5 0  -0.07000000000119283 0.5 0  -0.06000000000122058 0.5 0  -0.05000000000124827 0.5 0  -0.04000000000127607 0.5 0  -0.03000000000130376 0.5 0  -0.02000000000133151 0.5 0  -0.01000000000135925 0.5 0  -1.376121439022882e-12 0.5 0  0.009999999998640763 0.5 0  0.01999999999866864 0.5 0  0.02999999999869629 0.5 0  0.03999999999872406 0.5 0  0.04999999999875182 0.5 0  0.05999999999877947 0.5 0  0.06999999999880724 0.5 0  0.079999999998835 0.5 0  0.08999999999886266 0.5 0  0.09999999999889042 0.5 0  0.1099999999989182 0.5 0  0.1199999999989459 0.5 0  0.1299999999989737 0.5 0  0.1399999999990014 0.5 0  0.1499999999990291 0.5 0  0.1599999999990568 0.5 0  0.1699999999990847 0.5 0  0.1799999999991124 0.5 0  0.1899999999991401 0.5 0  0.1999999999991678 0.5 0  0.2099999999991955 0.5 0  0.2199999999992234 0.5 0  0.2299999999992511 0.5 0  0.2399999999992788 0.5 0  0.2499999999993066 0.5 0  0.2599999999993342 0.5 0  0.269999999999362 0.5 0  0.2799999999993897 0.5 0  0.2899999999994175 0.5 0  0.2999999999994452 0.5 0  0.3099999999994729 0.5 0  0.3199999999995007 0.5 0  0.3299999999995284 0.5 0  0.3399999999995562 0.5 0  0.3499999999995839 0.5 0  0.3599999999996116 0.5 0  0.3699999999996393 0.5 0  0.379999999999667 0.5 0  0.3899999999996949 0.5 0  0.3999999999997226 0.5 0  0.4099999999997503 0.5 0  0.419999999999778 0.5 0  0.4299999999998058 0.5 0  0.4399999999998336 0.5 0  0.4499999999998613 0.5 0  0.4599999999998891 0.5 0  0.4699999999999167 0.5 0  0.4799999999999445 0.5 0  0.4899999999999722 0.5 0  0.5 0.4900000000000277 0  0.5 0.4800000000000555 0  0.5 0.4700000000000832 0  0.5 0.4600000000001109 0  0.5 0.4500000000001387 0  0.5 0.4400000000001664 0  0.5 0.4300000000001942 0  0.5 0.4200000000002219 0  0.5 0.4100000000002497 0  0.5 0.4000000000002774 0  0.5 0.3900000000003052 0  0.5 0.3800000000003328 0  0.5 0.3700000000003606 0  0.5 0.3600000000003883 0  0.5 0.3500000000004161 0  0.5 0.3400000000004438 0  0.5 0.3300000000004716 0  0.5 0.3200000000004993 0  0.5 0.3100000000005271 0  0.5 0.3000000000005548 0  0.5 0.2900000000005825 0  0.5 0.2800000000006103 0  0.5 0.2700000000006381 0  0.5 0.2600000000006658 0  0.5 0.2500000000006935 0  0.5 0.2400000000007212 0  0.5 0.230000000000749 0  0.5 0.2200000000007767 0  0.5 0.2100000000008044 0  0.5 0.2000000000008322 0  0.5 0.19000000000086 0  0.5 0.1800000000008877 0  0.5 0.1700000000009154 0  0.5 0.1600000000009431 0  0.5 0.1500000000009709 0  0.5 0.1400000000009986 0  0.5 0.1300000000010264 0  0.5 0.1200000000010541 0  0.5 0.1100000000010818 0  0.5 0.1000000000011096 0  0.5 0.09000000000113734 0  0.5 0.08000000000116503 0  0.5 0.07000000000119283 0  0.5 0.06000000000122058 0  0.5 0.05000000000124827 0  0.5 0.04000000000127607 0  0.5 0.03000000000130376 0  0.5 0.02000000000133151 0  0.5 0.01000000000135925 0  0.5 1.376121439022882e-12 0  0.5 -0.009999999998640763 0  0.5 -0.01999999999866864 0  0.5 -0.02999999999869629 0  0.5 -0.03999999999872406 0  0.5 -0.04999999999875182 0  0.5 -0.05999999999877947 0  0.5 -0.06999999999880724 0  0.5 -0.079999999998835 0  0.5 -0.08999999999886266 0  0.5 -0.09999999999889042 0  0.5 -0.1099999999989182 0  0.5 -0.1199999999989459 0  0.5 -0.1299999999989737 0  0.5 -0.1399999999990014 0  0.5 -0.1499999999990291 0  0.5 -0.1599999999990568 0  0.5 -0.1699999999990847 0  0.5 -0.1799999999991124 0  0.5 -0.1899999999991401 0  0.5 -0.1999999999991678 0  0.5 -0.2099999999991955 0  0.5 -0.2199999999992234 0  0.5 -0.2299999999992511 0  0.5 -0.2399999999992788 0  0.5 -0.2499999999993066 0  0.5 -0.2599999999993342 0  0.5 -0.269999999999362 0  0.5 -0.2799999999993897 0  0.5 -0.2899999999994175 0  0.5 -0.2999999999994452 0  0.5 -0.3099999999994729 0  0.5 -0.3199999999995007 0  0.5 -0.3299999999995284 0  0.5 -0.3399999999995562 0  0.5 -0.3499999999995839 0  0.5 -0.3599999999996116 0  0.5 -0.3699999999996393 0  0.5 -0.379999999999667 0  0.5 -0.3899999999996949 0  0.5 -0.3999999999997226 0  0.5 -0.4099999999997503 0  0.5 -0.419999999999778 0  0.5 -0.4299999999998058 0  0.5 -0.4399999999998336 0  0.5 -0.4499999999998613 0  0.5 -0.4599999999998891 0  0.5 -0.4699999999999167 0  0.5 -0.4799999999999445 0  0.5 -0.4899999999999722 0  0.4900000000000277 -0.5 0  0.4800000000000555 -0.5 0  0.4700000000000832 -0.5 0  0.4600000000001109 -0.5 0  0.4500000000001387 -0.5 0  0.4400000000001664 -0.5 0  0.4300000000001942 -0.5 0  0.4200000000002219 -0.5 0  0.4100000000002497 -0.5 0  0.4000000000002774 -0.5 0  0.3900000000003052 -0.5 0  0.3800000000003328 -0.5 0  0.3700000000003606 -0.5 0  0.3600000000003883 -0.5 0  0.3500000000004161 -0.5 0  0.3400000000004438 -0.5 0  0.3300000000004716 -0.5 0  0.3200000000004993 -0.5 0  0.3100000000005271 -0.5 0  0.3000000000005548 -0.5 0  0.2900000000005825 -0.5 0  0.2800000000006103 -0.5 0  0.2700000000006381 -0.5 0  0.2600000000006658 -0.5 0  0.2500000000006935 -0.5 0  0.2400000000007212 -0.5 0  0.230000000000749 -0.5 0  0.2200000000007767 -0.5 0  0.2100000000008044 -0.5 0  0.2000000000008322 -0.5 0  0.19000000000086 -0.5 0  0.1800000000008877 -0.5 0  0.1700000000009154 -0.5 0  0.1600000000009431 -0.5 0  0.1500000000009709 -0.5 0  0.1400000000009986 -0.5 0  0.1300000000010264 -0.5 0  0.1200000000010541 -0.5 0  0.1100000000010818 -0.5 0  0.1000000000011096 -0.5 0  0.09000000000113734 -0.5 0  0.08000000000116503 -0.5 0  0.07000000000119283 -0.5 0  0.06000000000122058 -0.5 0  0.05000000000124827 -0.5 0  0.04000000000127607 -0.5 0  0.03000000000130376 -0.5 0  0.02000000000133151 -0.5 0  0.01000000000135925 -0.5 0  1.376121439022882e-12 -0.5 0  -0.009999999998640763 -0.5 0  -0.01999999999866864 -0.5 0  -0.02999999999869629 -0.5 0  -0.03999999999872406 -0.5 0  -0.04999999999875182 -0.5 0  -0.05999999999877947 -0.5 0  -0.06999999999880724 -0.5 0  -0.079999999998835 -0.5 0  -0.08999999999886266 -0.5 0  -0.09999999999889042 -0.5 0  -0.1099999999989182 -0.5 0  -0.1199999999989459 -0.5 0  -0.1299999999989737 -0.5 0  -0.1399999999990014 -0.5 0  -0.1499999999990291 -0.5 0  -0.1599999999990568 -0.5 0  -0.1699999999990847 -0.5 0  -0.1799999999991124 -0.5 0  -0.1899999999991401 -0.5 0  -0.1999999999991678 -0.5 0  -0.2099999999991955 -0.5 0  -0.2199999999992234 -0.5 0  -0.2299999999992511 -0.5 0  -0.2399999999992788 -0.5 0  -0.2499999999993066 -0.5 0  -0.2599999999993342 -0.5 0  -0.269999999999362 -0.5 0  -0.2799999999993897 -0.5 0  -0.2899999999994175 -0.5 0  -0.2999999999994452 -0.5 0  -0.3099999999994729 -0.5 0  -0.3199999999995007 -0.5 0  -0.3299999999995284 -0.5 0  -0.3399999999995562 -0.5 0  -0.3499999999995839 -0.5 0  -0.3599999999996116 -0.5 0  -0.3699999999996393 -0.5 0  -0.379999999999667 -0.5 0  -0.3899999999996949 -0.5 0  -0.3999999999997226 -0.5 0  -0.4099999999997503 -0.5 0  -0.419999999999778 -0.5 0  -0.4299999999998058 -0.5 0  -0.4399999999998336 -0.5 0  -0.4499999999998613 -0.5 0  -0.4599999999998891 -0.5 0  -0.4699999999999167 -0.5 0  -0.4799999999999445 -0.5 0  -0.4899999999999722 -0.5 0  -0.5 -0.4900000000000277 0  -0.5 -0.4800000000000555 0  -0.5 -0.4700000000000832 0  -0.5 -0.4600000000001109 0  -0.5 -0.4500000000001387 0  -0.5 -0.4400000000001664 0  -0.5 -0.4300000000001942 0  -0.5 -0.4200000000002219 0  -0.5 -0.4100000000002497 0  -0.5 -0.4000000000002774 0  -0.5 -0.3900000000003052 0  -0.5 -0.3800000000003328 0  -0.5 -0.3700000000003606 0  -0.5 -0.3600000000003883 0  -0.5 -0.3500000000004161 0  -0.5 -0.3400000000004438 0  -0.5 -0.3300000000004716 0  -0.5 -0.3200000000004993 0  -0.5 -0.3100000000005271 0  -0.5 -0.3000000000005548 0  -0.5 -0.2900000000005825 0  -0.5 -0.2800000000006103 0  -0.5 -0.2700000000006381 0  -0.5 -0.2600000000006658 0  -0.5 -0.2500000000006935 0  -0.5 -0.2400000000007212 0  -0.5 -0.230000000000749 0  -0.5 -0.2200000000007767 0  -0.5 -0.2100000000008044 0  -0.5 -0.2000000000008322 0  -0.5 -0.19000000000086 0  -0.5 -0.1800000000008877 0  -0.5 -0.1700000000009154 0  -0.5 -0.1600000000009431 0  -0.5 -0.1500000000009709 0  -0.5 -0.1400000000009986 0  -0.5 -0.1300000000010264 0  -0.5 -0.1200000000010541 0  -0.5 -0.1100000000010818 0  -0.5 -0.1000000000011096 0  -0.5 -0.09000000000113734 0  -0.5 -0.08000000000116503 0  -0.5 -0.07000000000119283 0  -0.5 -0.06000000000122058 0  -0.5 -0.05000000000124827 0  -0.5 -0.04000000000127607 0  -0.5 -0.03000000000130376 0  -0.5 -0.02000000000133151 0  -0.5 -0.01000000000135925 0  -0.5 -1.376121439022882e-12 0  -0.5 0.009999999998640763 0  -0.5 0.01999999999866864 0  -0.5 0.02999999999869629 0  -0.5 0.03999999999872406 0  -0.5 0.04999999999875182 0  -0.5 0.05999999999877947 0  -0.5 0.06999999999880724 0  -0.5 0.079999999998835 0  -0.5 0.08999999999886266 0  -0.5 0.09999999999889042
[...]
<PointData  Vectors="f_27-0"> 
<DataArray  type="Float64"  Name="f_27-0"  NumberOfComponents="3" format="ascii">1.6087051852096525e-03 4.8857529925030369e-02 0.0000000000000000e+00  -2.2133619033730453e-03 4.8557895838296658e-02 0.0000000000000000e+00  -4.6561073368797180e-04 3.7796263915527817e-02 0.0000000000000000e+00  5.6796077669850689e-04 3.7699000798279009e-02 0.0000000000000000e+00  -1.6864275434698450e-03 6.4653365795081831e-03 0.0000000000000000e+00  1.6961507964958014e-03 6.4222514318101652e-03 0.0000000000000000e+00  -8.2904030548129864e-04 6.1594525616102194e-03 0.0000000000000000e+00  8.2447350449026938e-04 6.1872972026824884e-03 0.0000000000000000e+00  2.8847058913662894e-03 4.8108363168148205e-02 0.0000000000000000e+00  4.1165666535894355e-03 4.7278584764924851e-02 0.0000000000000000e+00  5.2977795609209918e-03 4.6373442392938599e-02 0.0000000000000000e+00  6.4248769142368481e-03 4.5397241043218517e-02 0.0000000000000000e+00  7.4918482799101391e-03 4.4356690519296041e-02 0.0000000000000000e+00  8.4964764148473555e-03 4.3256132262203033e-02 0.0000000000000000e+00  9.4337314201342719e-03 4.2104004465912739e-02 0.0000000000000000e+00  1.0302631680097049e-02 4.0904917938729392e-02 0.0000000000000000e+00  1.1100388846851543e-02 3.9665896728588175e-02 0.0000000000000000e+00  1.1824150364043539e-02 3.8394797932215993e-02 0.0000000000000000e+00  1.2474781464446092e-02 3.7097667127794151e-02 0.0000000000000000e+00  1.3051419317659156e-02 3.5779957304549678e-02 0.0000000000000000e+00  1.3554098514802037e-02 3.4449014388761835e-02 0.0000000000000000e+00  1.3984199049289886e-02 3.3109500418744615e-02 0.0000000000000000e+00  1.4341051599458086e-02 3.1770050033232376e-02 0.0000000000000000e+00  1.4627854743878859e-02 3.0433909731416513e-02 0.0000000000000000e+00  1.4845916021017022e-02 2.9106262023170928e-02 0.0000000000000000e+00  1.4996764436562095e-02 2.7793299402852273e-02 0.0000000000000000e+00  1.5083472631600137e-02 2.6499272864957887e-02 0.0000000000000000e+00  1.5108667036127586e-02 2.5226916767721340e-02 0.0000000000000000e+00  1.5074524470384400e-02 2.3981019162236113e-02 0.0000000000000000e+00  1.4984467115086874e-02 2.2764005955508804e-02 0.0000000000000000e+00  1.4841306894957855e-02 2.1578700149276396e-02 0.0000000000000000e+00  1.4647601875099397e-02 2.0429755991426497e-02 0.0000000000000000e+00  1.4406627519968252e-02 1.9317329978224846e-02 0.0000000000000000e+00  1.4121678208158583e-02 1.8243842641133795e-02 0.0000000000000000e+00  1.3795158736635081e-02 1.7210773771799890e-02 0.0000000000000000e+00  1.3430108825090643e-02 1.6220535872171024e-02 0.0000000000000000e+00  1.3029556584191311e-02 1.5272187424510315e-02 0.0000000000000000e+00  1.2596190840015105e-02 1.4367702892875752e-02 0.0000000000000000e+00  1.2132293549021532e-02 1.3507850670181261e-02 0.0000000000000000e+00  1.1640502086518123e-02 1.2692994102725196e-02 0.0000000000000000e+00  1.1123263950210864e-02 1.1923780300317818e-02 0.0000000000000000e+00  1.0582918887783678e-02 1.1199482972206751e-02 0.0000000000000000e+00  1.0021290272708852e-02 1.0520486067990675e-02 0.0000000000000000e+00  9.4405014614251589e-03 9.8863418376852249e-03 0.0000000000000000e+00  8.8426565399234609e-03 9.2978497475668040e-03 0.0000000000000000e+00  8.2292141779537892e-03 8.7540687684783056e-03 0.0000000000000000e+00  7.6020242827005468e-03 8.2546155370221801e-03 0.0000000000000000e+00  6.9625798689127022e-03 7.8002258902509581e-03 0.0000000000000000e+00  6.3124262731275591e-03 7.3895708203851971e-03 0.0000000000000000e+00  5.6529631335956142e-03 7.0218381065674067e-03 0.0000000000000000e+00  4.9851986703906082e-03 6.6986138842302020e-03 0.0000000000000000e+00  4.3105392661945590e-03 6.4182469421740322e-03 0.0000000000000000e+00  3.6300503055403748e-03 6.1807463718355190e-03 0.0000000000000000e+00  2.9445936340552997e-03 5.9855997937464265e-03 0.0000000000000000e+00  2.2557829267491410e-03 5.8334029850001723e-03 0.0000000000000000e+00  1.5639229744504643e-03 5.7229975051542150e-03 0.0000000000000000e+00  8.7060482994053825e-04 5.6541976156646405e-03 0.0000000000000000e+00  1.7618009164818818e-04 5.6278734201493869e-03 0.0000000000000000e+00  -5.1815077817191232e-04 5.6435574742726841e-03 0.0000000000000000e+00  -1.2113352735199081e-03 5.7003891578161891e-03 0.0000000000000000e+00  -1.9028154215334978e-03 5.7989439508784645e-03 0.0000000000000000e+00  -2.5913171380700420e-03 5.9397802950033347e-03 0.0000000000000000e+00  -3.2761354165186060e-03 6.1231298928128928e-03 0.0000000000000000e+00  -3.9559778079495790e-03 6.3486317118278445e-03 0.0000000000000000e+00  -4.6300981011469242e-03 6.6167398026865647e-03 0.0000000000000000e+00  -5.2972064132516122e-03 6.9272222189613918e-03 0.0000000000000000e+00  -5.9564047666449864e-03 7.2807762499417610e-03 0.0000000000000000e+00  -6.6063733012135606e-03 7.6770814425147441e-03 0.0000000000000000e+00  -7.2455840666139134e-03 8.1176821175360254e-03 0.0000000000000000e+00  -7.8732174979392056e-03 8.6015262764494553e-03 0.0000000000000000e+00  -8.4871181817263840e-03 9.1293325811175833e-03 0.0000000000000000e+00  -9.0861499631607768e-03 9.7013905218594921e-03 0.0000000000000000e+00  -9.6686607180999432e-03 1.0317550159142640e-02 0.0000000000000000e+00  -1.0232470542571400e-02 1.0978066384414058e-02 0.0000000000000000e+00  -1.0776443668012871e-02 1.1683527762358110e-02 0.0000000000000000e+00  -1.1297470556222305e-02 1.2433813857137450e-02 0.0000000000000000e+00  -1.1794751924889716e-02 1.3228412162786586e-02 0.0000000000000000e+00  -1.2264792465449986e-02 1.4067240612844804e-02 0.0000000000000000e+00  -1.2706064558926143e-02 1.4950669836066738e-02 0.0000000000000000e+00  -1.3116033993057316e-02 1.5876217310207441e-02 0.0000000000000000e+00  -1.3491860867678007e-02 1.6843977349246472e-02 0.0000000000000000e+00  -1.3831351274762524e-02 1.7854112604982129e-02 0.0000000000000000e+00  -1.4131029615214336e-02 1.8904483648956531e-02 0.0000000000000000e+00  -1.4389161810306410e-02 1.9993810914661077e-02 0.0000000000000000e+00  -1.4601591805822219e-02 2.1121288741038861e-02 0.0000000000000000e+00  -1.4766545005391440e-02 2.2282546281188590e-02 0.0000000000000000e+00  -1.4880689820141355e-02 2.3477505808143596e-02 0.0000000000000000e+00  -1.4940984052862595e-02 2.4702918543718446e-02 0.0000000000000000e+00  -1.4944966603663680e-02 2.5955652907498152e-02 0.0000000000000000e+00  -1.4889464187234618e-02 2.7232064334780703e-02 0.0000000000000000e+00  -1.4772549166934115e-02 2.8528981147576550e-02 0.0000000000000000e+00  -1.4590533965283318e-02 2.9842900595227217e-02 0.0000000000000000e+00  -1.4342590607737168e-02 3.1167259512953065e-02 0.0000000000000000e+00  -1.4026033355504494e-02 3.2498787566877949e-02 0.0000000000000000e+00  -1.3638818703019759e-02 3.3832935036156274e-02 0.0000000000000000e+00  -1.3179898342742632e-02 3.5162771962971046e-02 0.0000000000000000e+00  -1.2648465677802121e-02 3.6482738059567116e-02 0.0000000000000000e+00  -1.2043812399833768e-02 3.7786601353160795e-02 0.0000000000000000e+00  -1.1366120243832264e-02 3.9068655781709032e-02 0.0000000000000000e+00  -1.0614465737343412e-02 4.0323293244589109e-02 0.0000000000000000e+00  -9.7913008847317316e-03 4.1542416005186017e-02 0.0000000000000000e+00  -8.8976543512582027e-03 4.2719746888203701e-02 0.0000000000000000e+00  -7.9348005512761433e-03 4.3850041752589254e-02 0.0000000000000000e+00  -6.9075013527523247e-03 4.4924263057394345e-02 0.0000000000000000e+00  -5.8167091248663965e-03 4.5938697263959140e-02 0.0000000000000000e+00  -4.6676418519260758e-03 4.6886050831288974e-02 0.0000000000000000e+00  -3.4649901626644200e-03 4.7760730144006731e-02 0.0000000000000000e+00  -2.5330371534658257e-03 4.9865709130375281e-02 0.0000000000000000e+00  -2.8767924550364820e-03 5.1240865074132877e-02 0.0000000000000000e+00  -3.2444633324734845e-03 5.2690504509829532e-02 0.0000000000000000e+00  -3.6391084350893385e-03 5.4216789493040450e-02 0.0000000000000000e+00  -4.0616576168098547e-03 5.5827404552540094e-02 0.0000000000000000e+00  -4.5174181340097014e-03 5.7525975471221735e-02 0.0000000000000000e+00  -5.0034791295998854e-03 5.9319238710678041e-02 0.0000000000000000e+00  -5.5290607612820146e-03 6.1214414952304071e-02 0.0000000000000000e+00  -6.0958557974479331e-03 6.3216656964222268e-02 0.0000000000000000e+00  -6.7040143827696982e-03 6.5335483472219916e-02 0.0000000000000000e+00  -7.3609227399124098e-03 6.7577808541463141e-02 0.0000000000000000e+00  -8.0735894255827747e-03 6.9950070948451473e-02 0.0000000000000000e+00  -8.8465030073793267e-03 7.2462641918626572e-02 0.0000000000000000e+00  -9.6887433610267724e-03 7.5118054581607530e-02 0.0000000000000000e+00  -1.0603785215963212e-02 7.7927719654622848e-02 0.0000000000000000e+00  -1.1601328773053766e-02 8.0896832384778836e-02 0.0000000000000000e+00  -1.2693150426134579e-02 8.4023395080502591e-02 0.0000000000000000e+00  -1.3878486044589709e-02 8.7315468487824704e-02 0.0000000000000000e+00  -1.5160075453330962e-02 9.0761227446201187e-02 0.0000000000000000e+00  -1.6532784890626002e-02 9.4345916206464223e-02 0.0000000000000000e+00  -1.7963129991739397e-02 9.8051929578757566e-02 0.0000000000000000e+00  -1.9400401570843082e-02 1.0183586413297979e-01 0.0000000000000000e+00  -2.0732310305850685e-02 1.0564808583281925e-01 0.0000000000000000e+00  -2.1792472538287387e-02 1.0941850403199889e-01 0.0000000000000000e+00  -2.2302295880305936e-02 1.1305049599969112e-01 0.0000000000000000e+00  -2.1868925647155910e-02 1.1644065072796785e-01 0.0000000000000000e+00  -1.9975331363094848e-02 1.1945829020772127e-01 0.0000000000000000e+00  -1.6013628258718545e-02 1.2199771979002703e-01 0.0000000000000000e+00  -9.3751441490261354e-03 1.2396953343100295e-01 0.0000000000000000e+00  3.1509246185304897e-04 1.2530296853884029e-01 0.0000000000000000e+00  1.2951304633332892e-02 1.2599058483464101e-01 0.0000000000000000e+00  2.7718445905251882e-02 1.2598306119865177e-01 0.0000000000000000e+00  4.2969604017811705e-02 1.2517372932302934e-01 0.0000000000000000e+00  5.6374930201114580e-02 1.2335331538140128e-01 0.0000000000000000e+00  6.5080151739779879e-02 1.2013012393132415e-01 0.0000000000000000e+00  6.5683398685232930e-02 1.1538351920897870e-01 0.0000000000000000e+00  5.5093561546230678e-02 1.0935440303000252e-01 0.0000000000000000e+00  3.1566646939514151e-02 1.0375107593924467e-01 0.0000000000000000e+00  -1.2897087464239620e-03 1.0101081040357814e-01 0.0000000000000000e+00  -3.4403561511951307e-02 1.0414582164853929e-01 0.0000000000000000e+00  -5.5901761469289796e-02 1.1432347600737541e-01 0.0000000000000000e+00  -6.0303659167601449e-02 1.2949321119908760e-01 0.0000000000000000e+00  -5.3612511071612093e-02 1.4468619164734162e-01 0.0000000000000000e+00  -4.4350558808226401e-02 1.5670343776071885e-01 0.0000000000000000e+00  -3.6192979504902023e-02 1.6493683301522935e-01 0.0000000000000000e+00  -2.9267847313089797e-02 1.7022099484915143e-01 0.0000000000000000e+00  -2.3240515428676896e-02 1.7320100110992090e-01 0.0000000000000000e+00  -1.7998642963666617e-02 1.7443481129077276e-01 0.0000000000000000e+00  -1.3341876586995819e-02 1.7428791072407493e-01 0.0000000000000000e+00  -9.2236830548754565e-03 1.7302614487664930e-01 0.0000000000000000e+00  -5.6007773634524742e-03 1.7085081536184960e-01 0.0000000000000000e+00  -2.4431594648946023e-03 1.6795322762470916e-01 0.0000000000000000e+00  2.8415829421121893e-04 1.6448621031558713e-01 0.0000000000000000e+00  2.6288443087018067e-03 1.6056670402995746e-01 0.0000000000000000e+00  4.5910953582475756e-03 1.5630394247404075e-01 0.0000000000000000e+00  6.2180027992515766e-03 1.5179172990297859e-01 0.0000000000000000e+00  7.5279134880195100e-03 1.4711816678386028e-01 0.0000000000000000e+00  8.5476265289612177e-03 1.4235806061920292e-01 0.0000000000000000e+00  9.3177210684359402e-03 1.3756156329180563e-01 0.0000000000000000e+00  9.8623754648220173e-03 1.3278545286813384e-01 0.0000000000000000e+00  1.0219010323098035e-02 1.2806097559550333e-01 0.0000000000000000e+00  1.0408869907888110e-02 1.2342804640394542e-01 0.0000000000000000e+00  1.0461761216656306e-02 1.1890882482825325e-01 0.0000000000000000e+00  1.0398712011526550e-02 1.1452215909312209e-01 0.0000000000000000e+00  1.0241491070017162e-02 1.1028215540142931e-01 0.0000000000000000e+00  1.0009683580448242e-02 1.0619479408758972e-01 0.0000000000000000e+00  9.7192632129386603e-03 1.0227204505990414e-01 0.0000000000000000e+00  9.3863546498456126e-03 9.8504827160903238e-02 0.0000000000000000e+00  9.0187028043428527e-03 9.4906030440075284e-02 0.0000000000000000e+00  8.6283446928026985e-03 9.1462505736398733e-02 0.0000000000000000e+00  8.2209421317617614e-03 8.8177202347182959e-02 0.0000000000000000e+00  7.8004912704199058e-03 8.5045218891261584e-02 0.0000000000000000e+00  7.3743615974599186e-03 8.2062886749361755e-02 0.0000000000000000e+00  6.9493229379901274e-03 7.9220584938264046e-02 0.0000000000000000e+00  6.5274274091750408e-03 7.6512196575810043e-02 0.0000000000000000e+00  6.1090105785929138e-03 7.3936840983269331e-02 0.0000000000000000e+00  5.7007345707846034e-03 7.1481637310245885e-02 0.0000000000000000e+00  5.2971110490354955e-03 6.9145715603796620e-02 0.0000000000000000e+00  4.9052652615977415e-03 6.6919844453677713e-02 0.0000000000000000e+00  4.5249413442486333e-03 6.4800361385023680e-02 0.0000000000000000e+00  4.1556327458166040e-03 6.2781245133102098e-02 0.0000000000000000e+00  3.7984160895866165e-03 6.0856128118499352e-02 0.0000000000000000e+00  3.4541058966450133e-03 5.9021965976816811e-02 0.0000000000000000e+00  3.1232509818448343e-03 5.7271174188467312e-02 0.0000000000000000e+00  2.8041221776150811e-03 5.5602096339700452e-02 0.0000000000000000e+00  2.4986415793294132e-03 5.4007901673746771e-02 0.0000000000000000e+00  2.2071118768500204e-03 5.2486418821023333e-02 0.0000000000000000e+00  1.9278507745228543e-03 5.1032567840962044e-02 0.0000000000000000e+00  1.6615997695590321e-03 4.9643888989710963e-02 0.0000000000000000e+00  1.4075609459528180e-03 4.8315929473124949e-02 0.0000000000000000e+00  1.1668334234379140e-03 4.7046590974818114e-02 0.0000000000000000e+00  9.3906727531389627e-04 4.5831754036742764e-02 0.0000000000000000e+00  7.2304729544402113e-04 4.4669678192998469e-02 0.0000000000000000e+00  5.1855856025699533e-04 4.3556927540331691e-02 0.0000000000000000e+00  3.2678174079070531e-04 4.2490983779191784e-02 0.0000000000000000e+00  1.4598469322174072e-04 4.1470475675702327e-02 0.0000000000000000e+00  -2.3015314895768405e-05 4.0492298814761706e-02 0.0000000000000000e+00  -1.8039833918850651e-04 3.9555061064992902e-02 0.0000000000000000e+00  -3.2784338595704868e-04 3.8657006843276803e-02 0.0000000000000000e+00  3.6549391716877169e-04 3.7304036759899441e-02 0.0000000000000000e+00  1.1709016897739016e-03 3.6765639250317873e-02 0.0000000000000000e+00  1.9488240039965195e-03 3.6182656380962741e-02 0.0000000000000000e+00  2.6960883790220300e-03 3.5557963593290338e-02 0.0000000000000000e+00  3.4111404582999900e-03 3.4893690852824510e-02 0.0000000000000000e+00  4.0912418465003236e-03 3.4193429932287196e-02 0.0000000000000000e+00  4.7353177046180967e-03 3.3459074165732509e-02 0.0000000000000000e+00  5.3409639152149739e-03 3.2694295689025314e-02 0.0000000000000000e+00  5.9070237800964076e-03 3.1902114509327985e-02 0.0000000000000000e+00  6.4329154367163003e-03 3.1085410923349099e-02 0.0000000000000000e+00  6.9170225512318571e-03 3.0247541261410972e-02 0.0000000000000000e+00  7.3586875778497941e-03 2.9392361824561623e-02 0.0000000000000000e+00  7.7574794148974014e-03 2.8522594163501763e-02 0.0000000000000000e+00  8.1126694526774436e-03 2.7642323438446539e-02 0.0000000000000000e+00  8.4250727162156064e-03 2.6753549935270619e-02 0.0000000000000000e+00  8.6940320865212042e-03 2.5860433993302363e-02 0.0000000000000000e+00  8.9200360910652171e-03 2.4966245326866900e-02 0.0000000000000000e+00  9.1037639234071259e-03 2.4073542181912922e-02 0.0000000000000000e+00  9.2457924385456365e-03 2.3185073454187789e-02 0.0000000000000000e+00  9.3466183730093744e-03 2.2304464064418349e-02 0.0000000000000000e+00  9.4075263678103371e-03 2.1433743024389690e-02 0.0000000000000000e+00  9.4293517096516802e-03 2.0575900144553159e-02 0.0000000000000000e+00  9.4131923077846007e-03 1.9733360431153396e-02 0.0000000000000000e+00  9.3608258697982297e-03 1.8907506777041887e-02 0.0000000000000000e+00  9.2731760237403284e-03 1.8101052263273815e-02 0.0000000000000000e+00  9.1516712762696514e-03 1.7315785094709615e-02 0.0000000000000000e+00  8.9979526057995338e-03 1.6553576838367633e-02 0.0000000000000000e+00  8.8136326261140010e-03 1.5815463388288958e-02 0.0000000000000000e+00  8.6000121010446403e-03 1.5103943281327374e-02 0.0000000000000000e+00  8.3585321910100204e-03 1.4419675081507270e-02 0.0000000000000000e+00  8.0910745869285407e-03 1.3763900902980276e-02 0.0000000000000000e+00  7.7989913079485581e-03 1.3137547538806587e-02 0.0000000000000000e+00  7.4840282401369947e-03 1.2541326443156709e-02 0.0000000000000000e+00  7.1474707335438424e-03 1.1976614608609625e-02 0.0000000000000000e+00  6.7910334169012637e-03 1.1443834503146951e-02 0.0000000000000000e+00  6.4161781999547063e-03 1.0943953848133205e-02 0.0000000000000000e+00  6.0241523951243825e-03 1.0476661889526111e-02 0.0000000000000000e+00  5.6166566185047746e-03 1.0043149060706476e-02 0.0000000000000000e+00  5.1947929199552692e-03 9.6435203057160558e-03 0.0000000000000000e+00  4.7602507230354082e-03 9.2777066083343917e-03 0.0000000000000000e+00  4.3141020996896066e-03 8.9466263736036299e-03 0.0000000000000000e+00  3.8575533178132966e-03 8.6508363209375910e-03 0.0000000000000000e+00  3.3921142014381482e-03 8.3892943296896231e-03 0.0000000000000000e+00  2.9187560107697655e-03 8.1628164822025433e-03 0.0000000000000000e+00  2.4387686197821080e-03 7.9713237646411323e-03 0.0000000000000000e+00  1.9534176759211513e-03 7.8149976214434511e-03 0.0000000000000000e+00  1.4636064117274394e-03 7.6934396529960355e-03 0.0000000000000000e+00  9.7089020349897534e-04 7.6074491224706071e-03 0.0000000000000000e+00  4.7590550154141917e-04 7.5569942215925976e-03 0.0000000000000000e+00  -1.9844380784573491e-05 7.5414129733401419e-03 0.0000000000000000e+00  -5.1546334655909638e-04 7.5610200198738603e-03 0.0000000000000000e+00  -1.0099127597534589e-03 7.6162529026898417e-03 0.0000000000000000e+00  -1.5018412910902611e-03 7.7068219355656276e-03 0.0000000000000000e+00  -1.9903065239338016e-03 7.8323428592411357e-03 0.0000000000000000e+00  -2.4740753188235232e-03 7.9927625359030568e-03 0.0000000000000000e+00  -2.9522323270183524e-03 8.1882831645807130e-03 0.0000000000000000e+00  -3.4233296054270979e-03 8.4186227683983993e-03 0.0000000000000000e+00  -3.8863900805561277e-03 8.6840732851608399e-03 0.0000000000000000e+00  -4.3400629707999816e-03 8.9840586887592281e-03 0.0000000000000000e+00  -4.7830639650028369e-03 9.3188489966274102e-03 0.0000000000000000e+00  -5.2144164245180600e-03 9.6873567084445229e-03 0.0000000000000000e+00  -5.6323797341021635e-03 1.0090194273984974e-02 0.0000000000000000e+00  -6.0360375345277217e-03 1.0526639284906001e-02 0.0000000000000000e+00  -6.4237689764796270e-03 1.0996359956980629e-02 0.0000000000000000e+00  -6.7941361568328957e-03 1.1498921704071456e-02 0.0000000000000000e+00  -7.1458444045485658e-03 1.2033838855399969e-02 0.0000000000000000e+00  -7.4772227268661406e-03 1.2600288533854604e-02 0.0000000000000000e+00  -7.7872417156617108e-03 1.3197287923430674e-02 0.0000000000000000e+00  -8.0736735270065738e-03 1.3824646684629906e-02 0.0000000000000000e+00  -8.3357391459284863e-03 1.4480967247312551e-02 0.0000000000000000e+00  -8.5714725834733531e-03 1.5165099869133393e-02 0.0000000000000000e+00  -8.7792951915398355e-03 1.5876715096149126e-02 0.0000000000000000e+00  -8.9578062649013392e-03 1.6614275372052290e-02 0.0000000000000000e+00  -9.1055731527091826e-03 1.7375365039413466e-02 0.0000000000000000e+00  -9.2212640955319381e-03 1.8159072527462197e-02 0.0000000000000000e+00  -9.3027831156807950e-03 1.8963419497127747e-02 0.0000000000000000e+00  -9.3497995140245233e-0