<?xml version="1.0"?>
<VTKFile type="UnstructuredGrid"  version="0.1"  >
<UnstructuredGrid>
<Piece  NumberOfPoints="16275" NumberOfCells="32468">
<Points>
<DataArray  type="Float64"  NumberOfComponents="3"  format="ascii">-0.5 0.5 0  0.5 0.5 0  0.5 -0.5 0  -0.5 -0.5 0  -1 1 0  1 1 0  1 -1 0  -1 -1 0  -0.4900000000000277 0.5 0  -0.4800000000000555 0.5 0  -0.4700000000000832 0.5 0  -0.4600000000001109 0.5 0  -0.4500000000001387 0.5 0  -0.4400000000001664 0.5 0  -0.4300000000001942 0.5 0  -0.4200000000002219 0.5 0  -0.4100000000002497 0.5 0  -0.4000000000002774 0.5 0  -0.3900000000003052 0.5 0  -0.3800000000003328 0.5 0  -0.3700000000003606 0.5 0  -0.3600000000003883 0.5 0  -0.3500000000004161 0.5 0  -0.3400000000004438 0.5 0  -0.3300000000004716 0.5 0  -0.3200000000004993 0.5 0  -0.3100000000005271 0.5 0  -0.3000000000005548 0.5 0  -0.2900000000005825 0.5 0  -0.2800000000006103 0.5 0  -0.2700000000006381 0.5 0  -0.2600000000006658 0.5 0  -0.2500000000006935 0.5 0  -0.2400000000007212 0.5 0  -0.230000000000749 0.5 0  -0.2200000000007767 0.5 0  -0.2100000000008044 0.5 0  -0.2000000000008322 0.5 0  -0.19000000000086 0.5 0  -0.1800000000008877 0.5 0  -0.1700000000009154 0.5 0  -0.1600000000009431 0.5 0  -0.1500000000009709 0.5 0  -0.1400000000009986 0.5 0  -0.1300000000010264 0.5 0  -0.1200000000010541 0.5 0  -0.1100000000010818 0.5 0  -0.1000000000011096 0.5 0  -0.09000000000113734 0.5 0  -0.08000000000116503 0.5 0  -0.07000000000119283 0.5 0  -0.06000000000122058 0.5 0  -0.05000000000124827 0.5 0  -0.04000000000127607 0.5 0  -0.03000000000130376 0.5 0  -0.02000000000133151 0.5 0  -0.01000000000135925 0.5 0  -1.376121439022882e-12 0.5 0  0.009999999998640763 0.5 0  0.01999999999866864 0.5 0  0.02999999999869629 0.5 0  0.03999999999872406 0.5 0  0.04999999999875182 0.5 0  0.05999999999877947 0.5 0  0.06999999999880724 0.5 0  0.079999999998835 0.5 0  0.08999999999886266 0.5 0  0.09999999999889042 0.5 0  0.1099999999989182 0.5 0  0.1199999999989459 0.5 0  0.1299999999989737 0.5 0  0.1399999999990014 0.5 0  0.1499999999990291 0.5 0  0.1599999999990568 0.5 0  0.1699999999990847 0.5 0  0.1799999999991124 0.5 0  0.1899999999991401 0.5 0  0.1999999999991678 0.5 0  0.2099999999991955 0.5 0  0.2199999999992234 0.5 0  0.2299999999992511 0.5 0  0.2399999999992788 0.5 0  0.2499999999993066 0.5 0  0.2599999999993342 0.5 0  0.269999999999362 0.5 0  0.2799999999993897 0.5 0  0.2899999999994175 0.5 0  0.2999999999994452 0.5 0  0.3099999999994729 0.5 0  0.3199999999995007 0.5 0  0.3299999999995284 0.5 0  0.3399999999995562 0.5 0  0.3499999999995839 0.5 0  0.3599999999996116 0.5 0  0.3699999999996393 0.5 0  0.379999999999667 0.5 0  0.3899999999996949 0.5 0  0.3999999999997226 0.5 0  0.4099999999997503 0.5 0  0.419999999999778 0.5 0  0.4299999999998058 0.5 0  0.4399999999998336 0.5 0  0.4499999999998613 0.5 0  0.4599999999998891 0.5 0  0.4699999999999167 0.5 0  0.4799999999999445 0.5 0  0.4899999999999722 0.5 0  0.5 0.4900000000000277 0  0.5 0.4800000000000555 0  0.5 0.4700000000000832 0  0.5 0.4600000000001109 0  0.5 0.4500000000001387 0  0.5 0.4400000000001664 0  0.5 0.4300000000001942 0  0.5 0.4200000000002219 0  0.5 0.4100000000002497 0  0.5 0.4000000000002774 0  0.5 0.3900000000003052 0  0.5 0.3800000000003328 0  0.5 0.3700000000003606 0  0.5 0.3600000000003883 0  0.5 0.3500000000004161 0  0.5 0.3400000000004438 0  0.5 0.3300000000004716 0  0.5 0.3200000000004993 0  0.5 0.3100000000005271 0  0.5 0.3000000000005548 0  0.5 0.2900000000005825 0  0.5 0.2800000000006103 0  0.5 0.2700000000006381 0  0.5 0.2600000000006658 0  0.5 0.2500000000006935 0  0.5 0.2400000000007212 0  0.5 0.230000000000749 0  0.5 0.2200000000007767 0  0.5 0.2100000000008044 0  0.5 0.2000000000008322 0  0.5 0.19000000000086 0  0.5 0.1800000000008877 0  0.5 0.1700000000009154 0  0.5 0.1600000000009431 0  0.5 0.1500000000009709 0  0.5 0.1400000000009986 0  0.5 0.1300000000010264 0  0.5 0.1200000000010541 0  0.5 0.1100000000010818 0  0.5 0.1000000000011096 0  0.5 0.09000000000113734 0  0.5 0.08000000000116503 0  0.5 0.07000000000119283 0  0.5 0.06000000000122058 0  0.5 0.05000000000124827 0  0.5 0.04000000000127607 0  0.5 0.03000000000130376 0  0.5 0.02000000000133151 0  0.5 0.01000000000135925 0  0.5 1.376121439022882e-12 0  0.5 -0.009999999998640763 0  0.5 -0.01999999999866864 0  0.5 -0.02999999999869629 0  0.5 -0.03999999999872406 0  0.5 -0.04999999999875182 0  0.5 -0.05999999999877947 0  0.5 -0.06999999999880724 0  0.5 -0.079999999998835 0  0.5 -0.08999999999886266 0  0.5 -0.09999999999889042 0  0.5 -0.1099999999989182 0  0.5 -0.1199999999989459 0  0.5 -0.1299999999989737 0  0.5 -0.1399999999990014 0  0.5 -0.1499999999990291 0  0.5 -0.1599999999990568 0  0.5 -0.1699999999990847 0  0.5 -0.1799999999991124 0  0.5 -0.1899999999991401 0  0.5 -0.1999999999991678 0  0.5 -0.2099999999991955 0  0.5 -0.2199999999992234 0  0.5 -0.2299999999992511 0  0.5 -0.2399999999992788 0  0.5 -0.2499999999993066 0  0.5 -0.2599999999993342 0  0.5 -0.269999999999362 0  0.5 -0.2799999999993897 0  0.5 -0.2899999999994175 0  0.5 -0.2999999999994452 0  0.5 -0.3099999999994729 0  0.5 -0.3199999999995007 0  0.5 -0.3299999999995284 0  0.5 -0.3399999999995562 0  0.5 -0.3499999999995839 0  0.5 -0.3599999999996116 0  0.5 -0.3699999999996393 0  0.5 -0.379999999999667 0  0.5 -0.3899999999996949 0  0.5 -0.3999999999997226 0  0.5 -0.4099999999997503 0  0.5 -0.419999999999778 0  0.5 -0.4299999999998058 0  0.5 -0.4399999999998336 0  0.5 -0.4499999999998613 0  0.5 -0.4599999999998891 0  0.5 -0.4699999999999167 0  0.5 -0.4799999999999445 0  0.5 -0.4899999999999722 0  0.4900000000000277 -0.5 0  0.4800000000000555 -0.5 0  0.4700000000000832 -0.5 0  0.4600000000001109 -0.5 0  0.4500000000001387 -0.5 0  0.4400000000001664 -0.5 0  0.4300000000001942 -0.5 0  0.4200000000002219 -0.5 0  0.4100000000002497 -0.5 0  0.4000000000002774 -0.5 0  0.3900000000003052 -0.5 0  0.3800000000003328 -0.5 0  0.3700000000003606 -0.5 0  0.3600000000003883 -0.5 0  0.3500000000004161 -0.5 0  0.3400000000004438 -0.5 0  0.3300000000004716 -0.5 0  0.3200000000004993 -0.5 0  0.3100000000005271 -0.5 0  0.3000000000005548 -0.5 0  0.2900000000005825 -0.5 0  0.2800000000006103 -0.5 0  0.2700000000006381 -0.5 0  0.2600000000006658 -0.5 0  0.2500000000006935 -0.5 0  0.2400000000007212 -0.5 0  0.230000000000749 -0.5 0  0.2200000000007767 -0.5 0  0.2100000000008044 -0.5 0  0.2000000000008322 -0.5 0  0.19000000000086 -0.5 0  0.1800000000008877 -0.5 0  0.1700000000009154 -0.5 0  0.1600000000009431 -0.5 0  0.1500000000009709 -0.5 0  0.1400000000009986 -0.5 0  0.1300000000010264 -0.5 0  0.1200000000010541 -0.5 0  0.1100000000010818 -0.5 0  0.1000000000011096 -0.5 0  0.09000000000113734 -0.5 0  0.08000000000116503 -0.5 0  0.07000000000119283 -0.5 0  0.06000000000122058 -0.5 0  0.05000000000124827 -0.5 0  0.04000000000127607 -0.5 0  0.03000000000130376 -0.5 0  0.02000000000133151 -0.5 0  0.01000000000135925 -0.5 0  1.376121439022882e-12 -0.5 0  -0.009999999998640763 -0.5 0  -0.01999999999866864 -0.5 0  -0.02999999999869629 -0.5 0  -0.03999999999872406 -0.5 0  -0.04999999999875182 -0.5 0  -0.05999999999877947 -0.5 0  -0.06999999999880724 -0.5 0  -0.079999999998835 -0.5 0  -0.08999999999886266 -0.5 0  -0.09999999999889042 -0.5 0  -0.1099999999989182 -0.5 0  -0.1199999999989459 -0.5 0  -0.1299999999989737 -0.5 0  -0.1399999999990014 -0.5 0  -0.1499999999990291 -0.5 0  -0.1599999999990568 -0.5 0  -0.1699999999990847 -0.5 0  -0.1799999999991124 -0.5 0  -0.1899999999991401 -0.5 0  -0.1999999999991678 -0.5 0  -0.2099999999991955 -0.5 0  -0.2199999999992234 -0.5 0  -0.2299999999992511 -0.5 0  -0.2399999999992788 -0.5 0  -0.2499999999993066 -0.5 0  -0.2599999999993342 -0.5 0  -0.269999999999362 -0.5 0  -0.2799999999993897 -0.5 0  -0.2899999999994175 -0.5 0  -0.2999999999994452 -0.5 0  -0.3099999999994729 -0.5 0  -0.3199999999995007 -0.5 0  -0.3299999999995284 -0.5 0  -0.3399999999995562 -0.5 0  -0.3499999999995839 -0.5 0  -0.3599999999996116 -0.5 0  -0.3699999999996393 -0.5 0  -0.379999999999667 -0.5 0  -0.3899999999996949 -0.5 0  -0.3999999999997226 -0.5 0  -0.4099999999997503 -0.5 0  -0.419999999999778 -0.5 0  -0.4299999999998058 -0.5 0  -0.4399999999998336 -0.5 0  -0.4499999999998613 -0.5 0  -0.4599999999998891 -0.5 0  -0.4699999999999167 -0.5 0  -0.4799999999999445 -0.5 0  -0.4899999999999722 -0.5 0  -0.5 -0.4900000000000277 0  -0.5 -0.4800000000000555 0  -0.5 -0.4700000000000832 0  -0.5 -0.4600000000001109 0  -0.5 -0.4500000000001387 0  -0.5 -0.4400000000001664 0  -0.5 -0.4300000000001942 0  -0.5 -0.4200000000002219 0  -0.5 -0.4100000000002497 0  -0.5 -0.4000000000002774 0  -0.5 -0.3900000000003052 0  -0.5 -0.3800000000003328 0  -0.5 -0.3700000000003606 0  -0.5 -0.3600000000003883 0  -0.5 -0.3500000000004161 0  -0.5 -0.3400000000004438 0  -0.5 -0.3300000000004716 0  -0.5 -0.3200000000004993 0  -0.5 -0.3100000000005271 0  -0.5 -0.3000000000005548 0  -0.5 -0.2900000000005825 0  -0.5 -0.2800000000006103 0  -0.5 -0.2700000000006381 0  -0.5 -0.2600000000006658 0  -0.5 -0.2500000000006935 0  -0.5 -0.2400000000007212 0  -0.5 -0.230000000000749 0  -0.5 -0.2200000000007767 0  -0.5 -0.2100000000008044 0  -0.5 -0.2000000000008322 0  -0.5 -0.19000000000086 0  -0.5 -0.1800000000008877 0  -0.5 -0.1700000000009154 0  -0.5 -0.1600000000009431 0  -0.5 -0.1500000000009709 0  -0.5 -0.1400000000009986 0  -0.5 -0.1300000000010264 0  -0.5 -0.1200000000010541 0  -0.5 -0.1100000000010818 0  -0.5 -0.1000000000011096 0  -0.5 -0.09000000000113734 0  -0.5 -0.08000000000116503 0  -0.5 -0.07000000000119283 0  -0.5 -0.06000000000122058 0  -0.5 -0.05000000000124827 0  -0.5 -0.04000000000127607 0  -0.5 -0.03000000000130376 0  -0.5 -0.02000000000133151 0  -0.5 -0.01000000000135925 0  -0.5 -1.376121439022882e-12 0  -0.5 0.009999999998640763 0  -0.5 0.01999999999866864 0  -0.5 0.02999999999869629 0  -0.5 0.03999999999872406 0  -0.5 0.04999999999875182 0  -0.5 0.05999999999877947 0  -0.5 0.06999999999880724 0  -0.5 0.079999999998835 0  -0.5 0.08999999999886266 0  -0.5 0.09999999999889042
[...]
<PointData  Vectors="f_27-0"> 
<DataArray  type="Float64"  Name="f_27-0"  NumberOfComponents="3" format="ascii">6.7220953662546488e-04 4.3977575206253616e-02 0.0000000000000000e+00  -9.9117663018761528e-04 4.3931261972440940e-02 0.0000000000000000e+00  3.2133738391669069e-04 4.1304994958593730e-02 0.0000000000000000e+00  -1.2060580200892726e-04 4.1271694568700133e-02 0.0000000000000000e+00  -1.6424755677756067e-03 6.6106748591583369e-03 0.0000000000000000e+00  1.6901273286318334e-03 6.5123202092114141e-03 0.0000000000000000e+00  -1.4359166667637700e-03 6.6498210090931023e-03 0.0000000000000000e+00  1.5406637505137452e-03 6.4864356580318404e-03 0.0000000000000000e+00  1.7359819350741591e-03 4.3349887235886828e-02 0.0000000000000000e+00  2.7644822122018203e-03 4.2658610945761059e-02 0.0000000000000000e+00  3.7544398765680235e-03 4.1907567655438391e-02 0.0000000000000000e+00  4.7028868286274469e-03 4.1100190334052697e-02 0.0000000000000000e+00  5.6051307920208749e-03 4.0240421448628931e-02 0.0000000000000000e+00  6.4599944719091829e-03 3.9331913130720382e-02 0.0000000000000000e+00  7.2632412983890246e-03 3.8379956966811839e-02 0.0000000000000000e+00  8.0140106225296461e-03 3.7388737145448492e-02 0.0000000000000000e+00  8.7093873971661288e-03 3.6363016701713338e-02 0.0000000000000000e+00  9.3475795201678358e-03 3.5307147061375346e-02 0.0000000000000000e+00  9.9288566553984332e-03 3.4227036100465638e-02 0.0000000000000000e+00  1.0451749251540441e-02 3.3126904823398431e-02 0.0000000000000000e+00  1.0915801522813314e-02 3.2011613626132654e-02 0.0000000000000000e+00  1.1321604452606566e-02 3.0885041053041722e-02 0.0000000000000000e+00  1.1668253854207424e-02 2.9753826959814732e-02 0.0000000000000000e+00  1.1957730203261923e-02 2.8620910849053202e-02 0.0000000000000000e+00  1.2190419506903203e-02 2.7490121293877481e-02 0.0000000000000000e+00  1.2367305141129284e-02 2.6366796695783300e-02 0.0000000000000000e+00  1.2490109567281396e-02 2.5254758991263556e-02 0.0000000000000000e+00  1.2560450584418414e-02 2.4156449413109109e-02 0.0000000000000000e+00  1.2579813120260210e-02 2.3075751082058837e-02 0.0000000000000000e+00  1.2550437653080108e-02 2.2015393548453846e-02 0.0000000000000000e+00  1.2474310669073960e-02 2.0977994592970412e-02 0.0000000000000000e+00  1.2353138431781307e-02 1.9967386214584729e-02 0.0000000000000000e+00  1.2189255793791537e-02 1.8984642426202264e-02 0.0000000000000000e+00  1.1985408330099971e-02 1.8032026439367774e-02 0.0000000000000000e+00  1.1742956147340892e-02 1.7111514645513675e-02 0.0000000000000000e+00  1.1464711683974668e-02 1.6224990373279399e-02 0.0000000000000000e+00  1.1152645325743856e-02 1.5372353332927141e-02 0.0000000000000000e+00  1.0809283736278015e-02 1.4556341231694999e-02 0.0000000000000000e+00  1.0436155530143420e-02 1.3777135825157496e-02 0.0000000000000000e+00  1.0036017541717915e-02 1.3035726178338704e-02 0.0000000000000000e+00  9.6103984994396242e-03 1.2333492141499480e-02 0.0000000000000000e+00  9.1616595420672964e-03 1.1670213059463220e-02 0.0000000000000000e+00  8.6911011735991833e-03 1.1046109221366973e-02 0.0000000000000000e+00  8.2008062471375532e-03 1.0460817895217888e-02 0.0000000000000000e+00  7.6929839994551684e-03 9.9169164337807088e-03 0.0000000000000000e+00  7.1681209849631267e-03 9.4126157656230936e-03 0.0000000000000000e+00  6.6290370192075600e-03 8.9478169419163183e-03 0.0000000000000000e+00  6.0763380102976886e-03 8.5241916559331294e-03 0.0000000000000000e+00  5.5126081727020423e-03 8.1405554987108442e-03 0.0000000000000000e+00  4.9383164440948129e-03 7.7968127438256402e-03 0.0000000000000000e+00  4.3545355108459893e-03 7.4934698127772127e-03 0.0000000000000000e+00  3.7630486955157645e-03 7.2297791125239437e-03 0.0000000000000000e+00  3.1646520196966701e-03 7.0066125032884402e-03 0.0000000000000000e+00  2.5605638143288796e-03 6.8224482075314712e-03 0.0000000000000000e+00  1.9524699219576470e-03 6.6787048531448366e-03 0.0000000000000000e+00  1.3408442228841856e-03 6.5742658419759570e-03 0.0000000000000000e+00  7.2778365901840036e-04 6.5093810430095905e-03 0.0000000000000000e+00  1.1232708833973057e-04 6.4849126222111904e-03 0.0000000000000000e+00  -5.0296961292562597e-04 6.4994262126985393e-03 0.0000000000000000e+00  -1.1170063128894236e-03 6.5530142484360151e-03 0.0000000000000000e+00  -1.7292411939351310e-03 6.6462463929248990e-03 0.0000000000000000e+00  -2.3384366864332693e-03 6.7795558939978294e-03 0.0000000000000000e+00  -2.9437049315811882e-03 6.9528188242624798e-03 0.0000000000000000e+00  -3.5436684906907006e-03 7.1655897988557645e-03 0.0000000000000000e+00  -4.1374488510375340e-03 7.4181084862348298e-03 0.0000000000000000e+00  -4.7233929522249264e-03 7.7106519026029141e-03 0.0000000000000000e+00  -5.3011690354287230e-03 8.0438315262983725e-03 0.0000000000000000e+00  -5.8690052856525182e-03 8.4163950261000597e-03 0.0000000000000000e+00  -6.4251443289151857e-03 8.8295893687634665e-03 0.0000000000000000e+00  -6.9689986642170222e-03 9.2828076668962350e-03 0.0000000000000000e+00  -7.4985823982275917e-03 9.7757363248301178e-03 0.0000000000000000e+00  -8.0121508207190127e-03 1.0309032325330736e-02 0.0000000000000000e+00  -8.5087611435598898e-03 1.0882385405277356e-02 0.0000000000000000e+00  -8.9860131266737524e-03 1.1495223457097947e-02 0.0000000000000000e+00  -9.4427387096583260e-03 1.2147937121554271e-02 0.0000000000000000e+00  -9.8764132736045424e-03 1.2840009525053342e-02 0.0000000000000000e+00  -1.0286068106905032e-02 1.3570284234019262e-02 0.0000000000000000e+00  -1.0668509750407718e-02 1.4338952063592819e-02 0.0000000000000000e+00  -1.1022308254443454e-02 1.5145972691975325e-02 0.0000000000000000e+00  -1.1346087336308965e-02 1.5988191303991765e-02 0.0000000000000000e+00  -1.1636456418820896e-02 1.6865163238738261e-02 0.0000000000000000e+00  -1.1892329113811542e-02 1.7776812137319305e-02 0.0000000000000000e+00  -1.2109934167960102e-02 1.8721549760630701e-02 0.0000000000000000e+00  -1.2289487897449080e-02 1.9697278221489797e-02 0.0000000000000000e+00  -1.2426194271573756e-02 2.0702131213718548e-02 0.0000000000000000e+00  -1.2519275987143095e-02 2.1732498201407088e-02 0.0000000000000000e+00  -1.2565961294442514e-02 2.2788240785769201e-02 0.0000000000000000e+00  -1.2564558607608406e-02 2.3865728400523933e-02 0.0000000000000000e+00  -1.2513179727770468e-02 2.4961941461247538e-02 0.0000000000000000e+00  -1.2409532072733476e-02 2.6073137328319260e-02 0.0000000000000000e+00  -1.2252142427094862e-02 2.7196743191112843e-02 0.0000000000000000e+00  -1.2039156128715887e-02 2.8329666142794755e-02 0.0000000000000000e+00  -1.1770266456932044e-02 2.9465781328732669e-02 0.0000000000000000e+00  -1.1443668430650989e-02 3.0602264712573553e-02 0.0000000000000000e+00  -1.1058247907320408e-02 3.1735259083304802e-02 0.0000000000000000e+00  -1.0614037347748949e-02 3.2859427540412912e-02 0.0000000000000000e+00  -1.0110793478412880e-02 3.3970026137956987e-02 0.0000000000000000e+00  -9.5488123348284604e-03 3.5061975691068815e-02 0.0000000000000000e+00  -8.9283912851519445e-03 3.6130819076556096e-02 0.0000000000000000e+00  -8.2498677102310434e-03 3.7172300582015420e-02 0.0000000000000000e+00  -7.5155116478266577e-03 3.8180545583206542e-02 0.0000000000000000e+00  -6.7267569449557477e-03 3.9151285320387641e-02 0.0000000000000000e+00  -5.8852862646720161e-03 4.0080069625587619e-02 0.0000000000000000e+00  -4.9948050124401693e-03 4.0960542841700316e-02 0.0000000000000000e+00  -4.0560822217036432e-03 4.1790327172675515e-02 0.0000000000000000e+00  -3.0737662188538243e-03 4.2564015908427004e-02 0.0000000000000000e+00  -2.0512276659294783e-03 4.3278666804686297e-02 0.0000000000000000e+00  -1.2237068675192244e-03 4.5033972580812223e-02 0.0000000000000000e+00  -1.4716785771763329e-03 4.6187709905210574e-02 0.0000000000000000e+00  -1.7360411974923968e-03 4.7399662687432766e-02 0.0000000000000000e+00  -2.0171235398990205e-03 4.8670345263043056e-02 0.0000000000000000e+00  -2.3161451448767321e-03 5.0006057650013515e-02 0.0000000000000000e+00  -2.6375787131571894e-03 5.1409505754830949e-02 0.0000000000000000e+00  -2.9748553248117658e-03 5.2883377913665153e-02 0.0000000000000000e+00  -3.3347823698386641e-03 5.4435275633570222e-02 0.0000000000000000e+00  -3.7174719284935030e-03 5.6067210524845389e-02 0.0000000000000000e+00  -4.1222929129940281e-03 5.7788069981385068e-02 0.0000000000000000e+00  -4.5528813125090316e-03 5.9602391251418967e-02 0.0000000000000000e+00  -5.0106701091143253e-03 6.1514488906364483e-02 0.0000000000000000e+00  -5.4955520882196277e-03 6.3534373892749338e-02 0.0000000000000000e+00  -6.0118605670217290e-03 6.5665026764080481e-02 0.0000000000000000e+00  -6.5581377345818532e-03 6.7918610367111651e-02 0.0000000000000000e+00  -7.1402180075373156e-03 7.0302876004036702e-02 0.0000000000000000e+00  -7.7626582000315499e-03 7.2822854097132642e-02 0.0000000000000000e+00  -8.4203823466528684e-03 7.5492430741912087e-02 0.0000000000000000e+00  -9.1196766776481079e-03 7.8318552440981931e-02 0.0000000000000000e+00  -9.8677671533421562e-03 8.1307061445600362e-02 0.0000000000000000e+00  -1.0663415655000537e-02 8.4474337843405634e-02 0.0000000000000000e+00  -1.1512013809814158e-02 8.7822071791533882e-02 0.0000000000000000e+00  -1.2415648171961221e-02 9.1361466609960501e-02 0.0000000000000000e+00  -1.3364889615080963e-02 9.5094461576112552e-02 0.0000000000000000e+00  -1.4357761911636027e-02 9.9034063350356250e-02 0.0000000000000000e+00  -1.5389707984432227e-02 1.0315848665064385e-01 0.0000000000000000e+00  -1.6433334932886297e-02 1.0748343372881045e-01 0.0000000000000000e+00  -1.7457905926356876e-02 1.1197073342833617e-01 0.0000000000000000e+00  -1.8414987443115913e-02 1.1659890906646156e-01 0.0000000000000000e+00  -1.9229228551285338e-02 1.2132888051083517e-01 0.0000000000000000e+00  -1.9786881662636993e-02 1.2609401452460992e-01 0.0000000000000000e+00  -1.9936334590880695e-02 1.3080120442676810e-01 0.0000000000000000e+00  -1.9480545107351765e-02 1.3533959782700539e-01 0.0000000000000000e+00  -1.8169383739738077e-02 1.3954179991684604e-01 0.0000000000000000e+00  -1.5692850894304795e-02 1.4320258673448633e-01 0.0000000000000000e+00  -1.1680042565964732e-02 1.4608131328907181e-01 0.0000000000000000e+00  -5.6880866410874047e-03 1.4781592247894165e-01 0.0000000000000000e+00  2.6942489698753595e-03 1.4810196032923040e-01 0.0000000000000000e+00  1.3813513368511490e-02 1.4643715016931244e-01 0.0000000000000000e+00  2.7723408108507461e-02 1.4245934148813386e-01 0.0000000000000000e+00  4.4114102919199510e-02 1.3563608988755155e-01 0.0000000000000000e+00  6.1566673116423706e-02 1.2588267308371909e-01 0.0000000000000000e+00  7.6956222414792205e-02 1.1305894051889535e-01 0.0000000000000000e+00  8.5867573808452669e-02 9.7791683870283377e-02 0.0000000000000000e+00  8.2008056333035179e-02 8.0936640544478647e-02 0.0000000000000000e+00  5.9874919218808845e-02 6.4214148260339096e-02 0.0000000000000000e+00  1.7418767354893852e-02 5.1749846554297076e-02 0.0000000000000000e+00  -3.5775343581625110e-02 4.8235130315845726e-02 0.0000000000000000e+00  -7.9264903287313546e-02 6.0061338091373560e-02 0.0000000000000000e+00  -9.2610944135459214e-02 8.4726128933196809e-02 0.0000000000000000e+00  -8.1008824356856274e-02 1.1115516576272888e-01 0.0000000000000000e+00  -6.2031287644628730e-02 1.3222468796108092e-01 0.0000000000000000e+00  -4.4864648532974109e-02 1.4624856198881245e-01 0.0000000000000000e+00  -3.0955916276187750e-02 1.5496736443755871e-01 0.0000000000000000e+00  -1.9831317293469975e-02 1.5993129662339756e-01 0.0000000000000000e+00  -1.0866720521714624e-02 1.6216531329551959e-01 0.0000000000000000e+00  -3.6997552623916287e-03 1.6233613083391810e-01 0.0000000000000000e+00  1.9669402805697653e-03 1.6092855389055469e-01 0.0000000000000000e+00  6.3617194769987999e-03 1.5836377114448352e-01 0.0000000000000000e+00  9.6727152230947321e-03 1.5492808159983190e-01 0.0000000000000000e+00  1.2092784382905017e-02 1.5086137587007042e-01 0.0000000000000000e+00  1.3764518527631742e-02 1.4635671320059732e-01 0.0000000000000000e+00  1.4826831775548704e-02 1.4158381059198408e-01 0.0000000000000000e+00  1.5405383615315746e-02 1.3665408702367005e-01 0.0000000000000000e+00  1.5601250330066320e-02 1.3167175423433697e-01 0.0000000000000000e+00  1.5510502701137081e-02 1.2671132092674148e-01 0.0000000000000000e+00  1.5202382623992421e-02 1.2183582567822089e-01 0.0000000000000000e+00  1.4743598491721320e-02 1.1707186371069819e-01 0.0000000000000000e+00  1.4178186944600154e-02 1.1246821513760956e-01 0.0000000000000000e+00  1.3548356274999743e-02 1.0802921182262219e-01 0.0000000000000000e+00  1.2880089893075713e-02 1.0377665407937355e-01 0.0000000000000000e+00  1.2192641686612608e-02 9.9714646744491431e-02 0.0000000000000000e+00  1.1497443747741887e-02 9.5853532604938535e-02 0.0000000000000000e+00  1.0812700184191684e-02 9.2176686822814768e-02 0.0000000000000000e+00  1.0144331004086193e-02 8.8682439286915729e-02 0.0000000000000000e+00  9.4943117052653184e-03 8.5377001817796810e-02 0.0000000000000000e+00  8.8736571663406306e-03 8.2237106482507885e-02 0.0000000000000000e+00  8.2684189496005558e-03 7.9267045698935404e-02 0.0000000000000000e+00  7.6902292482397289e-03 7.6451212873088772e-02 0.0000000000000000e+00  7.1376285116456209e-03 7.3785283809516850e-02 0.0000000000000000e+00  6.6085259252609829e-03 7.1259667355878506e-02 0.0000000000000000e+00  6.1025860300914234e-03 6.8865051620480705e-02 0.0000000000000000e+00  5.6209731384589843e-03 6.6596769941867140e-02 0.0000000000000000e+00  5.1644724716471370e-03 6.4442233205321289e-02 0.0000000000000000e+00  4.7248483434369536e-03 6.2401429500545932e-02 0.0000000000000000e+00  4.3071544883202702e-03 6.0461059313173818e-02 0.0000000000000000e+00  3.9112488387980874e-03 5.8619324505533789e-02 0.0000000000000000e+00  3.5355675386852608e-03 5.6867125013459079e-02 0.0000000000000000e+00  3.1783982993930258e-03 5.5202368791401314e-02 0.0000000000000000e+00  2.8369750979545649e-03 5.3617824592369231e-02 0.0000000000000000e+00  2.5139573690146268e-03 5.2109313046880629e-02 0.0000000000000000e+00  2.2097113893924675e-03 5.0671294357016110e-02 0.0000000000000000e+00  1.9216597354950026e-03 4.9301520925298437e-02 0.0000000000000000e+00  1.6496636769399900e-03 4.7994986397107101e-02 0.0000000000000000e+00  1.3935450139569395e-03 4.6748840992596297e-02 0.0000000000000000e+00  1.1509068072930600e-03 4.5559810719238182e-02 0.0000000000000000e+00  9.2281055210846326e-04 4.4423146648097364e-02 0.0000000000000000e+00  7.0876334522788811e-04 4.3336772004769937e-02 0.0000000000000000e+00  5.0769785434369311e-04 4.2298437614619031e-02 0.0000000000000000e+00  1.2776770103640571e-03 4.0727408767567919e-02 0.0000000000000000e+00  2.2020239770694588e-03 4.0093448836362282e-02 0.0000000000000000e+00  3.0920262644183309e-03 3.9406665050393953e-02 0.0000000000000000e+00  3.9447009509161711e-03 3.8671545725083280e-02 0.0000000000000000e+00  4.7572191237778977e-03 3.7889685182702526e-02 0.0000000000000000e+00  5.5276287226116603e-03 3.7066246600403648e-02 0.0000000000000000e+00  6.2527298155625475e-03 3.6202921891956147e-02 0.0000000000000000e+00  6.9322681000070366e-03 3.5305363392618382e-02 0.0000000000000000e+00  7.5619462097836591e-03 3.4377734758744789e-02 0.0000000000000000e+00  8.1435007854247701e-03 3.3421724045240880e-02 0.0000000000000000e+00  8.6740871327607907e-03 3.2444089842570897e-02 0.0000000000000000e+00  9.1538843532465598e-03 3.1449152240331124e-02 0.0000000000000000e+00  9.5812447703238074e-03 3.0439131700677281e-02 0.0000000000000000e+00  9.9567836507657836e-03 2.9419203558796039e-02 0.0000000000000000e+00  1.0281086492677382e-02 2.8392101226432213e-02 0.0000000000000000e+00  1.0554390021442915e-02 2.7363605722423877e-02 0.0000000000000000e+00  1.0776409162858477e-02 2.6335883603913032e-02 0.0000000000000000e+00  1.0949929611854346e-02 2.5313467699246851e-02 0.0000000000000000e+00  1.1074083402240390e-02 2.4299108716536951e-02 0.0000000000000000e+00  1.1151316157524615e-02 2.3296349061233325e-02 0.0000000000000000e+00  1.1182704406635286e-02 2.2307927133761507e-02 0.0000000000000000e+00  1.1169637100090812e-02 2.1337307250169621e-02 0.0000000000000000e+00  1.1113758533359863e-02 2.0387026192789863e-02 0.0000000000000000e+00  1.1017189016407410e-02 1.9458179930368778e-02 0.0000000000000000e+00  1.0881232185443075e-02 1.8554190262844602e-02 0.0000000000000000e+00  1.0708100983251924e-02 1.7676520105345754e-02 0.0000000000000000e+00  1.0499488189838500e-02 1.6827671042521270e-02 0.0000000000000000e+00  1.0257387792032674e-02 1.6007502222975360e-02 0.0000000000000000e+00  9.9833308890429420e-03 1.5219285221003709e-02 0.0000000000000000e+00  9.6799091950043690e-03 1.4463765002832168e-02 0.0000000000000000e+00  9.3484688794747937e-03 1.3741056654858527e-02 0.0000000000000000e+00  8.9914642288657903e-03 1.3052675925563256e-02 0.0000000000000000e+00  8.6102209063565836e-03 1.2399259847876648e-02 0.0000000000000000e+00  8.2063719815077870e-03 1.1782297974022277e-02 0.0000000000000000e+00  7.7816642949289682e-03 1.1200926835642300e-02 0.0000000000000000e+00  7.3383551035795030e-03 1.0656804016235748e-02 0.0000000000000000e+00  6.8772642080251372e-03 1.0150100738373653e-02 0.0000000000000000e+00  6.4000490443487830e-03 9.6801388221771281e-03 0.0000000000000000e+00  5.9087921494464773e-03 9.2477526188749805e-03 0.0000000000000000e+00  5.4042964128071178e-03 8.8530860973556370e-03 0.0000000000000000e+00  4.8889798966313888e-03 8.4965730518323963e-03 0.0000000000000000e+00  4.3630661635396337e-03 8.1791861713913731e-03 0.0000000000000000e+00  3.8282459762779310e-03 7.8982872449740588e-03 0.0000000000000000e+00  3.2855228875099032e-03 7.6555793379269078e-03 0.0000000000000000e+00  2.7360587326679610e-03 7.4512758619076688e-03 0.0000000000000000e+00  2.1814388773735995e-03 7.2842035567380796e-03 0.0000000000000000e+00  1.6225404574352240e-03 7.1548923772226181e-03 0.0000000000000000e+00  1.0606648734298872e-03 7.0635002859081785e-03 0.0000000000000000e+00  4.9749183013152686e-04 7.0110686427825464e-03 0.0000000000000000e+00  -6.7628890865638011e-05 6.9966774494400344e-03 0.0000000000000000e+00  -6.3235323845976950e-04 7.0189192841436602e-03 0.0000000000000000e+00  -1.1956736801555521e-03 7.0796663292387709e-03 0.0000000000000000e+00  -1.7562927813651768e-03 7.1788319558891327e-03 0.0000000000000000e+00  -2.3134505669787880e-03 7.3158447157594684e-03 0.0000000000000000e+00  -2.8660041035841795e-03 7.4903507167963452e-03 0.0000000000000000e+00  -3.4131384398668556e-03 7.7026891249788046e-03 0.0000000000000000e+00  -3.9532752015260797e-03 7.9523936283361577e-03 0.0000000000000000e+00  -4.4851230584839145e-03 8.2407175913552146e-03 0.0000000000000000e+00  -5.0078395800692730e-03 8.5673647876821548e-03 0.0000000000000000e+00  -5.5197824751879376e-03 8.9319648723864605e-03 0.0000000000000000e+00  -6.0197319012768183e-03 9.3331216210513473e-03 0.0000000000000000e+00  -6.5059935229749965e-03 9.7728229215467560e-03 0.0000000000000000e+00  -6.9781601258828065e-03 1.0249322842382247e-02 0.0000000000000000e+00  -7.4334379395752164e-03 1.0763206551521834e-02 0.0000000000000000e+00  -7.8710127771389436e-03 1.1314608188961401e-02 0.0000000000000000e+00  -8.2892075045152801e-03 1.1902376549055264e-02 0.0000000000000000e+00  -8.6856076459437929e-03 1.2525854299216507e-02 0.0000000000000000e+00  -9.0597446774914863e-03 1.3184648365983553e-02 0.0000000000000000e+00  -9.4086025180251075e-03 1.3878270336788588e-02 0.0000000000000000e+00  -9.7317955257066532e-03 1.4605473030851728e-02 0.0000000000000000e+00  -1.0026243628857510e-02 1.5365755424296886e-02 0.0000000000000000e+00  -1.0290714388708350e-02 1.6158605258829145e-02 0.0000000000000000e+00  -1.0522863165979961e-02 1.6982124284677449e-02 0.0000000000000000e+00  -1.0721711056794387e-02 1.7833546631427867e-02 0.0000000000000000e+00  -1.0883916536508638e-02 1.8713946636896905e-02 0.0000000000000000e+00  -1.1009412780994732e-02 1.9620832309695087e-02 0.0000000000000000e+00  -1.1095531277231865e-