<?xml version="1.0"?>
<VTKFile type="UnstructuredGrid"  version="0.1"  >
<UnstructuredGrid>
<Piece  NumberOfPoints="16275" NumberOfCells="32468">
<Points>
<DataArray  type="Float64"  NumberOfComponents="3"  format="ascii">-0.5 0.5 0  0.5 0.5 0  0.5 -0.5 0  -0.5 -0.5 0  -1 1 0  1 1 0  1 -1 0  -1 -1 0  -0.4900000000000277 0.5 0  -0.4800000000000555 0.5 0  -0.4700000000000832 0.5 0  -0.4600000000001109 0.5 0  -0.4500000000001387 0.5 0  -0.4400000000001664 0.5 0  -0.4300000000001942 0.5 0  -0.4200000000002219 0.5 0  -0.4100000000002497 0.5 0  -0.4000000000002774 0.5 0  -0.3900000000003052 0.5 0  -0.3800000000003328 0.5 0  -0.3700000000003606 0.5 0  -0.3600000000003883 0.5 0  -0.3500000000004161 0.5 0  -0.3400000000004438 0.5 0  -0.3300000000004716 0.5 0  -0.3200000000004993 0.5 0  -0.3100000000005271 0.5 0  -0.3000000000005548 0.5 0  -0.2900000000005825 0.5 0  -0.2800000000006103 0.5 0  -0.2700000000006381 0.5 0  -0.2600000000006658 0.5 0  -0.2500000000006935 0.5 0  -0.2400000000007212 0.5 0  -0.230000000000749 0.5 0  -0.2200000000007767 0.5 0  -0.2100000000008044 0.5 0  -0.2000000000008322 0.5 0  -0.19000000000086 0.5 0  -0.1800000000008877 0.5 0  -0.1700000000009154 0.5 0  -0.1600000000009431 0.5 0  -0.1500000000009709 0.5 0  -0.1400000000009986 0.5 0  -0.1300000000010264 0.5 0  -0.1200000000010541 0.5 0  -0.1100000000010818 0.5 0  -0.1000000000011096 0.5 0  -0.09000000000113734 0.5 0  -0.08000000000116503 0.5 0  -0.07000000000119283 0.5 0  -0.06000000000122058 0.5 0  -0.05000000000124827 0.5 0  -0.04000000000127607 0.5 0  -0.03000000000130376 0.5 0  -0.02000000000133151 0.5 0  -0.01000000000135925 0.5 0  -1.376121439022882e-12 0.5 0  0.009999999998640763 0.5 0  0.01999999999866864 0.5 0  0.02999999999869629 0.5 0  0.03999999999872406 0.5 0  0.04999999999875182 0.5 0  0.05999999999877947 0.5 0  0.06999999999880724 0.5 0  0.079999999998835 0.5 0  0.08999999999886266 0.5 0  0.09999999999889042 0.5 0  0.1099999999989182 0.5 0  0.1199999999989459 0.5 0  0.1299999999989737 0.5 0  0.1399999999990014 0.5 0  0.1499999999990291 0.5 0  0.1599999999990568 0.5 0  0.1699999999990847 0.5 0  0.1799999999991124 0.5 0  0.1899999999991401 0.5 0  0.1999999999991678 0.5 0  0.2099999999991955 0.5 0  0.2199999999992234 0.5 0  0.2299999999992511 0.5 0  0.2399999999992788 0.5 0  0.2499999999993066 0.5 0  0.2599999999993342 0.5 0  0.269999999999362 0.5 0  0.2799999999993897 0.5 0  0.2899999999994175 0.5 0  0.2999999999994452 0.5 0  0.3099999999994729 0.5 0  0.3199999999995007 0.5 0  0.3299999999995284 0.5 0  0.3399999999995562 0.5 0  0.3499999999995839 0.5 0  0.3599999999996116 0.5 0  0.3699999999996393 0.5 0  0.379999999999667 0.5 0  0.3899999999996949 0.5 0  0.3999999999997226 0.5 0  0.4099999999997503 0.5 0  0.419999999999778 0.5 0  0.4299999999998058 0.5 0  0.4399999999998336 0.5 0  0.4499999999998613 0.5 0  0.4599999999998891 0.5 0  0.4699999999999167 0.5 0  0.4799999999999445 0.5 0  0.4899999999999722 0.5 0  0.5 0.4900000000000277 0  0.5 0.4800000000000555 0  0.5 0.4700000000000832 0  0.5 0.4600000000001109 0  0.5 0.4500000000001387 0  0.5 0.4400000000001664 0  0.5 0.4300000000001942 0  0.5 0.4200000000002219 0  0.5 0.4100000000002497 0  0.5 0.4000000000002774 0  0.5 0.3900000000003052 0  0.5 0.3800000000003328 0  0.5 0.3700000000003606 0  0.5 0.3600000000003883 0  0.5 0.3500000000004161 0  0.5 0.3400000000004438 0  0.5 0.3300000000004716 0  0.5 0.3200000000004993 0  0.5 0.3100000000005271 0  0.5 0.3000000000005548 0  0.5 0.2900000000005825 0  0.5 0.2800000000006103 0  0.5 0.2700000000006381 0  0.5 0.2600000000006658 0  0.5 0.2500000000006935 0  0.5 0.2400000000007212 0  0.5 0.230000000000749 0  0.5 0.2200000000007767 0  0.5 0.2100000000008044 0  0.5 0.2000000000008322 0  0.5 0.19000000000086 0  0.5 0.1800000000008877 0  0.5 0.1700000000009154 0  0.5 0.1600000000009431 0  0.5 0.1500000000009709 0  0.5 0.1400000000009986 0  0.5 0.1300000000010264 0  0.5 0.1200000000010541 0  0.5 0.1100000000010818 0  0.5 0.1000000000011096 0  0.5 0.09000000000113734 0  0.5 0.08000000000116503 0  0.5 0.07000000000119283 0  0.5 0.06000000000122058 0  0.5 0.05000000000124827 0  0.5 0.04000000000127607 0  0.5 0.03000000000130376 0  0.5 0.02000000000133151 0  0.5 0.01000000000135925 0  0.5 1.376121439022882e-12 0  0.5 -0.009999999998640763 0  0.5 -0.01999999999866864 0  0.5 -0.02999999999869629 0  0.5 -0.03999999999872406 0  0.5 -0.04999999999875182 0  0.5 -0.05999999999877947 0  0.5 -0.06999999999880724 0  0.5 -0.079999999998835 0  0.5 -0.08999999999886266 0  0.5 -0.09999999999889042 0  0.5 -0.1099999999989182 0  0.5 -0.1199999999989459 0  0.5 -0.1299999999989737 0  0.5 -0.1399999999990014 0  0.5 -0.1499999999990291 0  0.5 -0.1599999999990568 0  0.5 -0.1699999999990847 0  0.5 -0.1799999999991124 0  0.5 -0.1899999999991401 0  0.5 -0.1999999999991678 0  0.5 -0.2099999999991955 0  0.5 -0.2199999999992234 0  0.5 -0.2299999999992511 0  0.5 -0.2399999999992788 0  0.5 -0.2499999999993066 0  0.5 -0.2599999999993342 0  0.5 -0.269999999999362 0  0.5 -0.2799999999993897 0  0.5 -0.2899999999994175 0  0.5 -0.2999999999994452 0  0.5 -0.3099999999994729 0  0.5 -0.3199999999995007 0  0.5 -0.3299999999995284 0  0.5 -0.3399999999995562 0  0.5 -0.3499999999995839 0  0.5 -0.3599999999996116 0  0.5 -0.3699999999996393 0  0.5 -0.379999999999667 0  0.5 -0.3899999999996949 0  0.5 -0.3999999999997226 0  0.5 -0.4099999999997503 0  0.5 -0.419999999999778 0  0.5 -0.4299999999998058 0  0.5 -0.4399999999998336 0  0.5 -0.4499999999998613 0  0.5 -0.4599999999998891 0  0.5 -0.4699999999999167 0  0.5 -0.4799999999999445 0  0.5 -0.4899999999999722 0  0.4900000000000277 -0.5 0  0.4800000000000555 -0.5 0  0.4700000000000832 -0.5 0  0.4600000000001109 -0.5 0  0.4500000000001387 -0.5 0  0.4400000000001664 -0.5 0  0.4300000000001942 -0.5 0  0.4200000000002219 -0.5 0  0.4100000000002497 -0.5 0  0.4000000000002774 -0.5 0  0.3900000000003052 -0.5 0  0.3800000000003328 -0.5 0  0.3700000000003606 -0.5 0  0.3600000000003883 -0.5 0  0.3500000000004161 -0.5 0  0.3400000000004438 -0.5 0  0.3300000000004716 -0.5 0  0.3200000000004993 -0.5 0  0.3100000000005271 -0.5 0  0.3000000000005548 -0.5 0  0.2900000000005825 -0.5 0  0.2800000000006103 -0.5 0  0.2700000000006381 -0.5 0  0.2600000000006658 -0.5 0  0.2500000000006935 -0.5 0  0.2400000000007212 -0.5 0  0.230000000000749 -0.5 0  0.2200000000007767 -0.5 0  0.2100000000008044 -0.5 0  0.2000000000008322 -0.5 0  0.19000000000086 -0.5 0  0.1800000000008877 -0.5 0  0.1700000000009154 -0.5 0  0.1600000000009431 -0.5 0  0.1500000000009709 -0.5 0  0.1400000000009986 -0.5 0  0.1300000000010264 -0.5 0  0.1200000000010541 -0.5 0  0.1100000000010818 -0.5 0  0.1000000000011096 -0.5 0  0.09000000000113734 -0.5 0  0.08000000000116503 -0.5 0  0.07000000000119283 -0.5 0  0.06000000000122058 -0.5 0  0.05000000000124827 -0.5 0  0.04000000000127607 -0.5 0  0.03000000000130376 -0.5 0  0.02000000000133151 -0.5 0  0.01000000000135925 -0.5 0  1.376121439022882e-12 -0.5 0  -0.009999999998640763 -0.5 0  -0.01999999999866864 -0.5 0  -0.02999999999869629 -0.5 0  -0.03999999999872406 -0.5 0  -0.04999999999875182 -0.5 0  -0.05999999999877947 -0.5 0  -0.06999999999880724 -0.5 0  -0.079999999998835 -0.5 0  -0.08999999999886266 -0.5 0  -0.09999999999889042 -0.5 0  -0.1099999999989182 -0.5 0  -0.1199999999989459 -0.5 0  -0.1299999999989737 -0.5 0  -0.1399999999990014 -0.5 0  -0.1499999999990291 -0.5 0  -0.1599999999990568 -0.5 0  -0.1699999999990847 -0.5 0  -0.1799999999991124 -0.5 0  -0.1899999999991401 -0.5 0  -0.1999999999991678 -0.5 0  -0.2099999999991955 -0.5 0  -0.2199999999992234 -0.5 0  -0.2299999999992511 -0.5 0  -0.2399999999992788 -0.5 0  -0.2499999999993066 -0.5 0  -0.2599999999993342 -0.5 0  -0.269999999999362 -0.5 0  -0.2799999999993897 -0.5 0  -0.2899999999994175 -0.5 0  -0.2999999999994452 -0.5 0  -0.3099999999994729 -0.5 0  -0.3199999999995007 -0.5 0  -0.3299999999995284 -0.5 0  -0.3399999999995562 -0.5 0  -0.3499999999995839 -0.5 0  -0.3599999999996116 -0.5 0  -0.3699999999996393 -0.5 0  -0.379999999999667 -0.5 0  -0.3899999999996949 -0.5 0  -0.3999999999997226 -0.5 0  -0.4099999999997503 -0.5 0  -0.419999999999778 -0.5 0  -0.4299999999998058 -0.5 0  -0.4399999999998336 -0.5 0  -0.4499999999998613 -0.5 0  -0.4599999999998891 -0.5 0  -0.4699999999999167 -0.5 0  -0.4799999999999445 -0.5 0  -0.4899999999999722 -0.5 0  -0.5 -0.4900000000000277 0  -0.5 -0.4800000000000555 0  -0.5 -0.4700000000000832 0  -0.5 -0.4600000000001109 0  -0.5 -0.4500000000001387 0  -0.5 -0.4400000000001664 0  -0.5 -0.4300000000001942 0  -0.5 -0.4200000000002219 0  -0.5 -0.4100000000002497 0  -0.5 -0.4000000000002774 0  -0.5 -0.3900000000003052 0  -0.5 -0.3800000000003328 0  -0.5 -0.3700000000003606 0  -0.5 -0.3600000000003883 0  -0.5 -0.3500000000004161 0  -0.5 -0.3400000000004438 0  -0.5 -0.3300000000004716 0  -0.5 -0.3200000000004993 0  -0.5 -0.3100000000005271 0  -0.5 -0.3000000000005548 0  -0.5 -0.2900000000005825 0  -0.5 -0.2800000000006103 0  -0.5 -0.2700000000006381 0  -0.5 -0.2600000000006658 0  -0.5 -0.2500000000006935 0  -0.5 -0.2400000000007212 0  -0.5 -0.230000000000749 0  -0.5 -0.2200000000007767 0  -0.5 -0.2100000000008044 0  -0.5 -0.2000000000008322 0  -0.5 -0.19000000000086 0  -0.5 -0.1800000000008877 0  -0.5 -0.1700000000009154 0  -0.5 -0.1600000000009431 0  -0.5 -0.1500000000009709 0  -0.5 -0.1400000000009986 0  -0.5 -0.1300000000010264 0  -0.5 -0.1200000000010541 0  -0.5 -0.1100000000010818 0  -0.5 -0.1000000000011096 0  -0.5 -0.09000000000113734 0  -0.5 -0.08000000000116503 0  -0.5 -0.07000000000119283 0  -0.5 -0.06000000000122058 0  -0.5 -0.05000000000124827 0  -0.5 -0.04000000000127607 0  -0.5 -0.03000000000130376 0  -0.5 -0.02000000000133151 0  -0.5 -0.01000000000135925 0  -0.5 -1.376121439022882e-12 0  -0.5 0.009999999998640763 0  -0.5 0.01999999999866864 0  -0.5 0.02999999999869629 0  -0.5 0.03999999999872406 0  -0.5 0.04999999999875182 0  -0.5 0.05999999999877947 0  -0.5 0.06999999999880724 0  -0.5 0.079999999998835 0  -0.5 0.08999999999886266 0  -0.5 0.09999999999889042
[...]
<PointData  Vectors="f_27-0"> 
<DataArray  type="Float64"  Name="f_27-0"  NumberOfComponents="3" format="ascii">1.8263131694318652e-03 4.9955130270005275e-02 0.0000000000000000e+00  -2.5064380969812682e-03 4.9574563911549185e-02 0.0000000000000000e+00  -6.0247475198328205e-04 3.7161544107044746e-02 0.0000000000000000e+00  6.9067117134872255e-04 3.7057279587076802e-02 0.0000000000000000e+00  -1.7962294432621129e-03 6.5900785767036745e-03 0.0000000000000000e+00  1.8388099377217707e-03 6.5148063064284414e-03 0.0000000000000000e+00  -8.1206789604402292e-04 6.1744818646888968e-03 0.0000000000000000e+00  8.1159953444737642e-04 6.2082012401231965e-03 0.0000000000000000e+00  3.1540188042228651e-03 4.9175896256135242e-02 0.0000000000000000e+00  4.4348675195921292e-03 4.8311653029104291e-02 0.0000000000000000e+00  5.6617940763528610e-03 4.7368164669978993e-02 0.0000000000000000e+00  6.8311700257396163e-03 4.6350127034526047e-02 0.0000000000000000e+00  7.9365553536735883e-03 4.5264833172087335e-02 0.0000000000000000e+00  8.9756999557620096e-03 4.4116960057477964e-02 0.0000000000000000e+00  9.9432948554044904e-03 4.2915764014630250e-02 0.0000000000000000e+00  1.0838428068931970e-02 4.1666041453902618e-02 0.0000000000000000e+00  1.1658254431415065e-02 4.0375437400041445e-02 0.0000000000000000e+00  1.2399878446148052e-02 3.9052435794277175e-02 0.0000000000000000e+00  1.3064411673820209e-02 3.7703440060644612e-02 0.0000000000000000e+00  1.3651080096990889e-02 3.6334214085068296e-02 0.0000000000000000e+00  1.4160085568120980e-02 3.4952514591935137e-02 0.0000000000000000e+00  1.4593077049918385e-02 3.3563269068592964e-02 0.0000000000000000e+00  1.4949520486044260e-02 3.2175614282102312e-02 0.0000000000000000e+00  1.5232969199058127e-02 3.0792832473361013e-02 0.0000000000000000e+00  1.5444919560080612e-02 2.9420340570351304e-02 0.0000000000000000e+00  1.5587169385490081e-02 2.8064544819515050e-02 0.0000000000000000e+00  1.5663102100880774e-02 2.6729841583149106e-02 0.0000000000000000e+00  1.5675553297088744e-02 2.5418943586396122e-02 0.0000000000000000e+00  1.5626960173392438e-02 2.4136732438501056e-02 0.0000000000000000e+00  1.5521000311987221e-02 2.2885631330985434e-02 0.0000000000000000e+00  1.5360691394739511e-02 2.1668458102233400e-02 0.0000000000000000e+00  1.5148831872486218e-02 2.0489981308897901e-02 0.0000000000000000e+00  1.4888858946726450e-02 1.9350135202023850e-02 0.0000000000000000e+00  1.4584260022588244e-02 1.8251352892131201e-02 0.0000000000000000e+00  1.4237594975617312e-02 1.7195004856149158e-02 0.0000000000000000e+00  1.3852077979918997e-02 1.6183506720617032e-02 0.0000000000000000e+00  1.3430816523466631e-02 1.5215710798111407e-02 0.0000000000000000e+00  1.2976656770339929e-02 1.4293523283601938e-02 0.0000000000000000e+00  1.2491952753338118e-02 1.3417666320025360e-02 0.0000000000000000e+00  1.1979421049448040e-02 1.2588360167242853e-02 0.0000000000000000e+00  1.1441604075726476e-02 1.1806164245999944e-02 0.0000000000000000e+00  1.0880875846457550e-02 1.1070240864846851e-02 0.0000000000000000e+00  1.0299095668447947e-02 1.0380860805039374e-02 0.0000000000000000e+00  9.6984410199086844e-03 9.7375135145174804e-03 0.0000000000000000e+00  9.0810407388532671e-03 9.1408877014643782e-03 0.0000000000000000e+00  8.4483581827930424e-03 8.5899880446068493e-03 0.0000000000000000e+00  7.8022455573601079e-03 8.0842927184399515e-03 0.0000000000000000e+00  7.1442200276651650e-03 7.6245310470559663e-03 0.0000000000000000e+00  6.4757864130885121e-03 7.2092412185703935e-03 0.0000000000000000e+00  5.7983435046727967e-03 6.8375406209830909e-03 0.0000000000000000e+00  5.1129093921302819e-03 6.5110175350648544e-03 0.0000000000000000e+00  4.4208582917625652e-03 6.2279364879542420e-03 0.0000000000000000e+00  3.7232379556501449e-03 5.9882787941352702e-03 0.0000000000000000e+00  3.0208656257284857e-03 5.7914718632124905e-03 0.0000000000000000e+00  2.3153569347948684e-03 5.6381176078222012e-03 0.0000000000000000e+00  1.6069416782309555e-03 5.5269685489255493e-03 0.0000000000000000e+00  8.9721384368190288e-04 5.4578371222188298e-03 0.0000000000000000e+00  1.8648549126832202e-04 5.4316044576635846e-03 0.0000000000000000e+00  -5.2407114629057750e-04 5.4477890597450247e-03 0.0000000000000000e+00  -1.2334446845639925e-03 5.5055071880627891e-03 0.0000000000000000e+00  -1.9411087241086337e-03 5.6053419389070179e-03 0.0000000000000000e+00  -2.6458150030610988e-03 5.7478620305513985e-03 0.0000000000000000e+00  -3.3468952450676792e-03 5.9333242685018590e-03 0.0000000000000000e+00  -4.0430804787960498e-03 6.1613882096795101e-03 0.0000000000000000e+00  -4.7336570254616845e-03 6.4325296918625327e-03 0.0000000000000000e+00  -5.4173606623447706e-03 6.7465322793749246e-03 0.0000000000000000e+00  -6.0933158149266862e-03 7.1041372666277606e-03 0.0000000000000000e+00  -6.7602219979162846e-03 7.5050594397798945e-03 0.0000000000000000e+00  -7.4165653288691810e-03 7.9509155775052322e-03 0.0000000000000000e+00  -8.0615491246567167e-03 8.4406876100716847e-03 0.0000000000000000e+00  -8.6930073133733021e-03 8.9751505472301062e-03 0.0000000000000000e+00  -9.3098249571081614e-03 9.5546696670833573e-03 0.0000000000000000e+00  -9.9103436528785328e-03 1.0179137226356702e-02 0.0000000000000000e+00  -1.0492358097736189e-02 1.0848890748403273e-02 0.0000000000000000e+00  -1.1054756350619151e-02 1.1564625917266541e-02 0.0000000000000000e+00  -1.1594363874820603e-02 1.2326267682103936e-02 0.0000000000000000e+00  -1.2110388801915176e-02 1.3133410244849798e-02 0.0000000000000000e+00  -1.2599257707732439e-02 1.3986020962974324e-02 0.0000000000000000e+00  -1.3059436165713621e-02 1.4884620617684370e-02 0.0000000000000000e+00  -1.3488286954281066e-02 1.5826732391521697e-02 0.0000000000000000e+00  -1.3882899885789807e-02 1.6812590531332071e-02 0.0000000000000000e+00  -1.4241030017304385e-02 1.7842433884864818e-02 0.0000000000000000e+00  -1.4559076305371409e-02 1.8914202716266652e-02 0.0000000000000000e+00  -1.4835194252326721e-02 2.0026714069302731e-02 0.0000000000000000e+00  -1.5065145623205970e-02 2.1179263709594068e-02 0.0000000000000000e+00  -1.5246951795551484e-02 2.2367436602112292e-02 0.0000000000000000e+00  -1.5377170435155768e-02 2.3591285934542999e-02 0.0000000000000000e+00  -1.5452584789613978e-02 2.4847644901977554e-02 0.0000000000000000e+00  -1.5470557333130035e-02 2.6133351906295090e-02 0.0000000000000000e+00  -1.5427666429771824e-02 2.7444753071634763e-02 0.0000000000000000e+00  -1.5321865094172356e-02 2.8778748817928738e-02 0.0000000000000000e+00  -1.5149149392208905e-02 3.0131721566652406e-02 0.0000000000000000e+00  -1.4908506474935100e-02 3.1497048219907363e-02 0.0000000000000000e+00  -1.4596986339693085e-02 3.2871319711694998e-02 0.0000000000000000e+00  -1.4212339912823641e-02 3.4250029340001341e-02 0.0000000000000000e+00  -1.3753225403381532e-02 3.5625889502595605e-02 0.0000000000000000e+00  -1.3218645725804850e-02 3.6993172167469036e-02 0.0000000000000000e+00  -1.2607575804609545e-02 3.8345340447504719e-02 0.0000000000000000e+00  -1.1920123769451446e-02 3.9676519918531085e-02 0.0000000000000000e+00  -1.1155017655326902e-02 4.0980764677373376e-02 0.0000000000000000e+00  -1.0314671429153627e-02 4.2249524083986890e-02 0.0000000000000000e+00  -9.3999103543764718e-03 4.3476017353261044e-02 0.0000000000000000e+00  -8.4119000966559054e-03 4.4654793118166919e-02 0.0000000000000000e+00  -7.3555325772673577e-03 4.5776052324349420e-02 0.0000000000000000e+00  -6.2316223686768842e-03 4.6835764767046387e-02 0.0000000000000000e+00  -5.0455741639394217e-03 4.7826096762123897e-02 0.0000000000000000e+00  -3.8022076776565070e-03 4.8740818855320792e-02 0.0000000000000000e+00  -2.8492336264068136e-03 5.0929897806481023e-02 0.0000000000000000e+00  -3.2184080120871766e-03 5.2356003066610278e-02 0.0000000000000000e+00  -3.6139696433109851e-03 5.3860430771652867e-02 0.0000000000000000e+00  -4.0395236424875603e-03 5.5445492218841305e-02 0.0000000000000000e+00  -4.4963665522704081e-03 5.7119269560223361e-02 0.0000000000000000e+00  -4.9904730247662139e-03 5.8885532367759459e-02 0.0000000000000000e+00  -5.5193291201235343e-03 6.0751352634426416e-02 0.0000000000000000e+00  -6.0928996878158283e-03 6.2724107977378263e-02 0.0000000000000000e+00  -6.7138466872722364e-03 6.4809086902821736e-02 0.0000000000000000e+00  -7.3834436497670110e-03 6.7015839501034485e-02 0.0000000000000000e+00  -8.1102559929410786e-03 6.9350922896289621e-02 0.0000000000000000e+00  -8.9026947578131482e-03 7.1820169861254918e-02 0.0000000000000000e+00  -9.7664701122881590e-03 7.4432918631369069e-02 0.0000000000000000e+00  -1.0712241596301698e-02 7.7189800431844757e-02 0.0000000000000000e+00  -1.1745103055028024e-02 8.0099344326330271e-02 0.0000000000000000e+00  -1.2874130678094920e-02 8.3163005701932080e-02 0.0000000000000000e+00  -1.4109655265508503e-02 8.6372133725429262e-02 0.0000000000000000e+00  -1.5445737431336226e-02 8.9726460486381207e-02 0.0000000000000000e+00  -1.6871046082999580e-02 9.3201057830131231e-02 0.0000000000000000e+00  -1.8353226717086044e-02 9.6765812191649314e-02 0.0000000000000000e+00  -1.9812344623845353e-02 1.0038270448543135e-01 0.0000000000000000e+00  -2.1118456744538709e-02 1.0398418135653310e-01 0.0000000000000000e+00  -2.2037180155737256e-02 1.0749908609957193e-01 0.0000000000000000e+00  -2.2235838874101750e-02 1.1083599497444979e-01 0.0000000000000000e+00  -2.1230984951586401e-02 1.1389005508407325e-01 0.0000000000000000e+00  -1.8405511598107615e-02 1.1658638527279364e-01 0.0000000000000000e+00  -1.3135972026289550e-02 1.1884579910591729e-01 0.0000000000000000e+00  -4.9104636060645999e-03 1.2065433316578526e-01 0.0000000000000000e+00  6.3379945734693861e-03 1.2203668765931909e-01 0.0000000000000000e+00  2.0082018375559899e-02 1.2295173943402553e-01 0.0000000000000000e+00  3.4966981552730203e-02 1.2334707547840310e-01 0.0000000000000000e+00  4.8995818410128435e-02 1.2294306593845421e-01 0.0000000000000000e+00  5.9614112659940252e-02 1.2141314487572044e-01 0.0000000000000000e+00  6.3663577991469489e-02 1.1842058489939504e-01 0.0000000000000000e+00  5.7951884876490695e-02 1.1397931880373985e-01 0.0000000000000000e+00  4.0057030205014818e-02 1.0920362562228929e-01 0.0000000000000000e+00  1.1509470238747455e-02 1.0607193175971238e-01 0.0000000000000000e+00  -2.0841907447259313e-02 1.0741729423921634e-01 0.0000000000000000e+00  -4.5660913851549030e-02 1.1486104874311580e-01 0.0000000000000000e+00  -5.5338095718113850e-02 1.2755717078598736e-01 0.0000000000000000e+00  -5.2344785866843942e-02 1.4189507776001270e-01 0.0000000000000000e+00  -4.4805051250496906e-02 1.5424256435510200e-01 0.0000000000000000e+00  -3.7611128138742088e-02 1.6315701881963723e-01 0.0000000000000000e+00  -3.1404428678737245e-02 1.6919429820549320e-01 0.0000000000000000e+00  -2.5972520730211533e-02 1.7293608800694429e-01 0.0000000000000000e+00  -2.1109386049293868e-02 1.7490614331847959e-01 0.0000000000000000e+00  -1.6693456775088045e-02 1.7542541695176700e-01 0.0000000000000000e+00  -1.2741719287960801e-02 1.7477561822268195e-01 0.0000000000000000e+00  -9.1596159033933960e-03 1.7317952176208309e-01 0.0000000000000000e+00  -5.9425334909641711e-03 1.7080194340924887e-01 0.0000000000000000e+00  -3.0805709881093560e-03 1.6777533296221050e-01 0.0000000000000000e+00  -5.7415780759932948e-04 1.6424367844971685e-01 0.0000000000000000e+00  1.6010788318439521e-03 1.6031703365871430e-01 0.0000000000000000e+00  3.4779125235160370e-03 1.5608347458158242e-01 0.0000000000000000e+00  5.0509745685170630e-03 1.5162779476067317e-01 0.0000000000000000e+00  6.3559423906547289e-03 1.4702231986674338e-01 0.0000000000000000e+00  7.4051329343801792e-03 1.4233444262248748e-01 0.0000000000000000e+00  8.2175173744557847e-03 1.3762287214286489e-01 0.0000000000000000e+00  8.8278264945906067e-03 1.3292270850436369e-01 0.0000000000000000e+00  9.2534790567903001e-03 1.2827940638511576e-01 0.0000000000000000e+00  9.5255073576224949e-03 1.2371432403808558e-01 0.0000000000000000e+00  9.6591510915487559e-03 1.1925891352206335e-01 0.0000000000000000e+00  9.6787931198779459e-03 1.1492795632365781e-01 0.0000000000000000e+00  9.6008648243956669e-03 1.1073520602743057e-01 0.0000000000000000e+00  9.4430472077147824e-03 1.0669015313655376e-01 0.0000000000000000e+00  9.2212860169625412e-03 1.0279568285004043e-01 0.0000000000000000e+00  8.9488039789312728e-03 9.9060764266203472e-02 0.0000000000000000e+00  8.6390221822964242e-03 9.5475412721796049e-02 0.0000000000000000e+00  8.2983321142774073e-03 9.2050113153084118e-02 0.0000000000000000e+00  7.9369200316036781e-03 8.8771973659341044e-02 0.0000000000000000e+00  7.5597324432169297e-03 8.5643097739094523e-02 0.0000000000000000e+00  7.1698714883138073e-03 8.2658301120329500e-02 0.0000000000000000e+00  6.7740356084514649e-03 7.9813812756398150e-02 0.0000000000000000e+00  6.3784874106684103e-03 7.7100642694307428e-02 0.0000000000000000e+00  5.9850739499850390e-03 7.4513030660749643e-02 0.0000000000000000e+00  5.5942196382197783e-03 7.2049918616578029e-02 0.0000000000000000e+00  5.2120858550269945e-03 6.9699581396554106e-02 0.0000000000000000e+00  4.8336683622093313e-03 6.7461051205472411e-02 0.0000000000000000e+00  4.4656552500994401e-03 6.5325876342407330e-02 0.0000000000000000e+00  4.1079553330531883e-03 6.3290671188981087e-02 0.0000000000000000e+00  3.7601805072400387e-03 6.1349903968779138e-02 0.0000000000000000e+00  3.4234092612642794e-03 5.9497670608240093e-02 0.0000000000000000e+00  3.0985270066521504e-03 5.7731200089733793e-02 0.0000000000000000e+00  2.7860754182517352e-03 5.6043481964807615e-02 0.0000000000000000e+00  2.4845125233467834e-03 5.4433016318875073e-02 0.0000000000000000e+00  2.1956742993555181e-03 5.2893486443912244e-02 0.0000000000000000e+00  1.9199581366528000e-03 5.1422913630877955e-02 0.0000000000000000e+00  1.6558313386451384e-03 5.0016582999954110e-02 0.0000000000000000e+00  1.4040106804423258e-03 4.8672243084472766e-02 0.0000000000000000e+00  1.1637324497943309e-03 4.7385745056213596e-02 0.0000000000000000e+00  9.3602583866212374e-04 4.6155136211176180e-02 0.0000000000000000e+00  7.2060713448601342e-04 4.4976543022151171e-02 0.0000000000000000e+00  5.1642797691126680e-04 4.3848350493432352e-02 0.0000000000000000e+00  3.2336010831249360e-04 4.2767375207010461e-02 0.0000000000000000e+00  1.4253713738804585e-04 4.1731307012029567e-02 0.0000000000000000e+00  -2.7742385234034976e-05 4.0738891295711573e-02 0.0000000000000000e+00  -1.8678460454445278e-04 3.9787202999128760e-02 0.0000000000000000e+00  -3.3478912451142162e-04 3.8874896472527058e-02 0.0000000000000000e+00  -4.7330040918349678e-04 3.8000277512801328e-02 0.0000000000000000e+00  2.0768317948504985e-04 3.6684292835616521e-02 0.0000000000000000e+00  9.9303584696587349e-04 3.6162257011304377e-02 0.0000000000000000e+00  1.7518665241708063e-03 3.5597005180063257e-02 0.0000000000000000e+00  2.4811431348682870e-03 3.4991283732476446e-02 0.0000000000000000e+00  3.1793709842877485e-03 3.4347105313008934e-02 0.0000000000000000e+00  3.8439280615224663e-03 3.3667877310781788e-02 0.0000000000000000e+00  4.4737619392503656e-03 3.2955419472148716e-02 0.0000000000000000e+00  5.0665551230797542e-03 3.2213234991218323e-02 0.0000000000000000e+00  5.6211860012561551e-03 3.1444234498120720e-02 0.0000000000000000e+00  6.1370710590944906e-03 3.0651194069013260e-02 0.0000000000000000e+00  6.6126377752924546e-03 2.9837307456242142e-02 0.0000000000000000e+00  7.0472319952308874e-03 2.9006250932099714e-02 0.0000000000000000e+00  7.4404039682199790e-03 2.8160663553029690e-02 0.0000000000000000e+00  7.7914276447456658e-03 2.7304495390835178e-02 0.0000000000000000e+00  8.1010264603578758e-03 2.6439703720909563e-02 0.0000000000000000e+00  8.3685422763379921e-03 2.5570274887827097e-02 0.0000000000000000e+00  8.5943961490454329e-03 2.4699369208447432e-02 0.0000000000000000e+00  8.7792085041140666e-03 2.3829483320453704e-02 0.0000000000000000e+00  8.9234960947830455e-03 2.2963300972184013e-02 0.0000000000000000e+00  9.0277012968389709e-03 2.2104333158846488e-02 0.0000000000000000e+00  9.0930264109833799e-03 2.1254569413028494e-02 0.0000000000000000e+00  9.1202473345304031e-03 2.0416928826340153e-02 0.0000000000000000e+00  9.1103931889522389e-03 1.9593787765937978e-02 0.0000000000000000e+00  9.0651549467887053e-03 1.8786539190374842e-02 0.0000000000000000e+00  8.9853979920920986e-03 1.7997829053267123e-02 0.0000000000000000e+00  8.8724754016027245e-03 1.7229438601771636e-02 0.0000000000000000e+00  8.7279541452974473e-03 1.6483226045578999e-02 0.0000000000000000e+00  8.5533790820853418e-03 1.5760257770318576e-02 0.0000000000000000e+00  8.3499847406605637e-03 1.5062974335099377e-02 0.0000000000000000e+00  8.1191733852504812e-03 1.4392066284721594e-02 0.0000000000000000e+00  7.8627600348644845e-03 1.3748788302180447e-02 0.0000000000000000e+00  7.5820495123927649e-03 1.3134077980253265e-02 0.0000000000000000e+00  7.2787373226110641e-03 1.2548677209721051e-02 0.0000000000000000e+00  6.9540646567781044e-03 1.1993972444832988e-02 0.0000000000000000e+00  6.6096995386010996e-03 1.1470409333527479e-02 0.0000000000000000e+00  6.2470760501122683e-03 1.0978968931160429e-02 0.0000000000000000e+00  5.8674214482116833e-03 1.0519388686469405e-02 0.0000000000000000e+00  5.4723986644851508e-03 1.0092877892734966e-02 0.0000000000000000e+00  5.0630884570130336e-03 9.6995675645415048e-03 0.0000000000000000e+00  4.6411489571831048e-03 9.3394229503643688e-03 0.0000000000000000e+00  4.2076360967036614e-03 9.0133435150037498e-03 0.0000000000000000e+00  3.7637483264343027e-03 8.7218965982181033e-03 0.0000000000000000e+00  3.3109905992814897e-03 8.4641112105528094e-03 0.0000000000000000e+00  2.8503340333481809e-03 8.2408026980476355e-03 0.0000000000000000e+00  2.3830612502282488e-03 8.0519194520020723e-03 0.0000000000000000e+00  1.9104207146201624e-03 7.8976531736928094e-03 0.0000000000000000e+00  1.4333176550415337e-03 7.7776320671006424e-03 0.0000000000000000e+00  9.5328009267033151e-04 7.6926219337579748e-03 0.0000000000000000e+00  4.7096687157255086e-04 7.6425924792468576e-03 0.0000000000000000e+00  -1.2123593643927062e-05 7.6269189335245666e-03 0.0000000000000000e+00  -4.9508539441598136e-04 7.6459233560140618e-03 0.0000000000000000e+00  -9.7688212533518200e-04 7.7000263689559626e-03 0.0000000000000000e+00  -1.4561800889955220e-03 7.7889285106669216e-03 0.0000000000000000e+00  -1.9320315863109506e-03 7.9122366352910277e-03 0.0000000000000000e+00  -2.4032102002297245e-03 8.0699004119499790e-03 0.0000000000000000e+00  -2.8687919305365678e-03 8.2621162558067906e-03 0.0000000000000000e+00  -3.3273446533918652e-03 8.4885947895329012e-03 0.0000000000000000e+00  -3.7778932310933637e-03 8.7495889168100333e-03 0.0000000000000000e+00  -4.2191050779779478e-03 9.0445096576158360e-03 0.0000000000000000e+00  -4.6497078755301773e-03 9.3735959076160415e-03 0.0000000000000000e+00  -5.0687320577134766e-03 9.7357754118166714e-03 0.0000000000000000e+00  -5.4744666702992812e-03 1.0131606242255939e-02 0.0000000000000000e+00  -5.8659932472660851e-03 1.0560355886186663e-02 0.0000000000000000e+00  -6.2417291269570669e-03 1.1021677108465838e-02 0.0000000000000000e+00  -6.6002674295486769e-03 1.1515103270708562e-02 0.0000000000000000e+00  -6.9403433125491175e-03 1.2040123987521453e-02 0.0000000000000000e+00  -7.2603399768580625e-03 1.2595906411622924e-02 0.0000000000000000e+00  -7.5592363033739644e-03 1.3181448975467656e-02 0.0000000000000000e+00  -7.8348789330685321e-03 1.3796535463902648e-02 0.0000000000000000e+00  -8.0865016515021156e-03 1.4439767300845978e-02 0.0000000000000000e+00  -8.3122241199852231e-03 1.5109993549351801e-02 0.0000000000000000e+00  -8.5105103696588181e-03 1.5806817135521997e-02 0.0000000000000000e+00  -8.6800144082421135e-03 1.6528722173432573e-02 0.0000000000000000e+00  -8.8193587679104048e-03 1.7273336893503397e-02 0.0000000000000000e+00  -8.9272706534156143e-03 1.8039732857510982e-02 0.0000000000000000e+00  -9.0017565280690326e-03 1.8825955835927114e-02 0.0000000000000000e+00  -9.0425219742365972e-