<?xml version="1.0"?>
<VTKFile type="UnstructuredGrid"  version="0.1"  >
<UnstructuredGrid>
<Piece  NumberOfPoints="16275" NumberOfCells="32468">
<Points>
<DataArray  type="Float64"  NumberOfComponents="3"  format="ascii">-0.5 0.5 0  0.5 0.5 0  0.5 -0.5 0  -0.5 -0.5 0  -1 1 0  1 1 0  1 -1 0  -1 -1 0  -0.4900000000000277 0.5 0  -0.4800000000000555 0.5 0  -0.4700000000000832 0.5 0  -0.4600000000001109 0.5 0  -0.4500000000001387 0.5 0  -0.4400000000001664 0.5 0  -0.4300000000001942 0.5 0  -0.4200000000002219 0.5 0  -0.4100000000002497 0.5 0  -0.4000000000002774 0.5 0  -0.3900000000003052 0.5 0  -0.3800000000003328 0.5 0  -0.3700000000003606 0.5 0  -0.3600000000003883 0.5 0  -0.3500000000004161 0.5 0  -0.3400000000004438 0.5 0  -0.3300000000004716 0.5 0  -0.3200000000004993 0.5 0  -0.3100000000005271 0.5 0  -0.3000000000005548 0.5 0  -0.2900000000005825 0.5 0  -0.2800000000006103 0.5 0  -0.2700000000006381 0.5 0  -0.2600000000006658 0.5 0  -0.2500000000006935 0.5 0  -0.2400000000007212 0.5 0  -0.230000000000749 0.5 0  -0.2200000000007767 0.5 0  -0.2100000000008044 0.5 0  -0.2000000000008322 0.5 0  -0.19000000000086 0.5 0  -0.1800000000008877 0.5 0  -0.1700000000009154 0.5 0  -0.1600000000009431 0.5 0  -0.1500000000009709 0.5 0  -0.1400000000009986 0.5 0  -0.1300000000010264 0.5 0  -0.1200000000010541 0.5 0  -0.1100000000010818 0.5 0  -0.1000000000011096 0.5 0  -0.09000000000113734 0.5 0  -0.08000000000116503 0.5 0  -0.07000000000119283 0.5 0  -0.06000000000122058 0.5 0  -0.05000000000124827 0.5 0  -0.04000000000127607 0.5 0  -0.03000000000130376 0.5 0  -0.02000000000133151 0.5 0  -0.01000000000135925 0.5 0  -1.376121439022882e-12 0.5 0  0.009999999998640763 0.5 0  0.01999999999866864 0.5 0  0.02999999999869629 0.5 0  0.03999999999872406 0.5 0  0.04999999999875182 0.5 0  0.05999999999877947 0.5 0  0.06999999999880724 0.5 0  0.079999999998835 0.5 0  0.08999999999886266 0.5 0  0.09999999999889042 0.5 0  0.1099999999989182 0.5 0  0.1199999999989459 0.5 0  0.1299999999989737 0.5 0  0.1399999999990014 0.5 0  0.1499999999990291 0.5 0  0.1599999999990568 0.5 0  0.1699999999990847 0.5 0  0.1799999999991124 0.5 0  0.1899999999991401 0.5 0  0.1999999999991678 0.5 0  0.2099999999991955 0.5 0  0.2199999999992234 0.5 0  0.2299999999992511 0.5 0  0.2399999999992788 0.5 0  0.2499999999993066 0.5 0  0.2599999999993342 0.5 0  0.269999999999362 0.5 0  0.2799999999993897 0.5 0  0.2899999999994175 0.5 0  0.2999999999994452 0.5 0  0.3099999999994729 0.5 0  0.3199999999995007 0.5 0  0.3299999999995284 0.5 0  0.3399999999995562 0.5 0  0.3499999999995839 0.5 0  0.3599999999996116 0.5 0  0.3699999999996393 0.5 0  0.379999999999667 0.5 0  0.3899999999996949 0.5 0  0.3999999999997226 0.5 0  0.4099999999997503 0.5 0  0.419999999999778 0.5 0  0.4299999999998058 0.5 0  0.4399999999998336 0.5 0  0.4499999999998613 0.5 0  0.4599999999998891 0.5 0  0.4699999999999167 0.5 0  0.4799999999999445 0.5 0  0.4899999999999722 0.5 0  0.5 0.4900000000000277 0  0.5 0.4800000000000555 0  0.5 0.4700000000000832 0  0.5 0.4600000000001109 0  0.5 0.4500000000001387 0  0.5 0.4400000000001664 0  0.5 0.4300000000001942 0  0.5 0.4200000000002219 0  0.5 0.4100000000002497 0  0.5 0.4000000000002774 0  0.5 0.3900000000003052 0  0.5 0.3800000000003328 0  0.5 0.3700000000003606 0  0.5 0.3600000000003883 0  0.5 0.3500000000004161 0  0.5 0.3400000000004438 0  0.5 0.3300000000004716 0  0.5 0.3200000000004993 0  0.5 0.3100000000005271 0  0.5 0.3000000000005548 0  0.5 0.2900000000005825 0  0.5 0.2800000000006103 0  0.5 0.2700000000006381 0  0.5 0.2600000000006658 0  0.5 0.2500000000006935 0  0.5 0.2400000000007212 0  0.5 0.230000000000749 0  0.5 0.2200000000007767 0  0.5 0.2100000000008044 0  0.5 0.2000000000008322 0  0.5 0.19000000000086 0  0.5 0.1800000000008877 0  0.5 0.1700000000009154 0  0.5 0.1600000000009431 0  0.5 0.1500000000009709 0  0.5 0.1400000000009986 0  0.5 0.1300000000010264 0  0.5 0.1200000000010541 0  0.5 0.1100000000010818 0  0.5 0.1000000000011096 0  0.5 0.09000000000113734 0  0.5 0.08000000000116503 0  0.5 0.07000000000119283 0  0.5 0.06000000000122058 0  0.5 0.05000000000124827 0  0.5 0.04000000000127607 0  0.5 0.03000000000130376 0  0.5 0.02000000000133151 0  0.5 0.01000000000135925 0  0.5 1.376121439022882e-12 0  0.5 -0.009999999998640763 0  0.5 -0.01999999999866864 0  0.5 -0.02999999999869629 0  0.5 -0.03999999999872406 0  0.5 -0.04999999999875182 0  0.5 -0.05999999999877947 0  0.5 -0.06999999999880724 0  0.5 -0.079999999998835 0  0.5 -0.08999999999886266 0  0.5 -0.09999999999889042 0  0.5 -0.1099999999989182 0  0.5 -0.1199999999989459 0  0.5 -0.1299999999989737 0  0.5 -0.1399999999990014 0  0.5 -0.1499999999990291 0  0.5 -0.1599999999990568 0  0.5 -0.1699999999990847 0  0.5 -0.1799999999991124 0  0.5 -0.1899999999991401 0  0.5 -0.1999999999991678 0  0.5 -0.2099999999991955 0  0.5 -0.2199999999992234 0  0.5 -0.2299999999992511 0  0.5 -0.2399999999992788 0  0.5 -0.2499999999993066 0  0.5 -0.2599999999993342 0  0.5 -0.269999999999362 0  0.5 -0.2799999999993897 0  0.5 -0.2899999999994175 0  0.5 -0.2999999999994452 0  0.5 -0.3099999999994729 0  0.5 -0.3199999999995007 0  0.5 -0.3299999999995284 0  0.5 -0.3399999999995562 0  0.5 -0.3499999999995839 0  0.5 -0.3599999999996116 0  0.5 -0.3699999999996393 0  0.5 -0.379999999999667 0  0.5 -0.3899999999996949 0  0.5 -0.3999999999997226 0  0.5 -0.4099999999997503 0  0.5 -0.419999999999778 0  0.5 -0.4299999999998058 0  0.5 -0.4399999999998336 0  0.5 -0.4499999999998613 0  0.5 -0.4599999999998891 0  0.5 -0.4699999999999167 0  0.5 -0.4799999999999445 0  0.5 -0.4899999999999722 0  0.4900000000000277 -0.5 0  0.4800000000000555 -0.5 0  0.4700000000000832 -0.5 0  0.4600000000001109 -0.5 0  0.4500000000001387 -0.5 0  0.4400000000001664 -0.5 0  0.4300000000001942 -0.5 0  0.4200000000002219 -0.5 0  0.4100000000002497 -0.5 0  0.4000000000002774 -0.5 0  0.3900000000003052 -0.5 0  0.3800000000003328 -0.5 0  0.3700000000003606 -0.5 0  0.3600000000003883 -0.5 0  0.3500000000004161 -0.5 0  0.3400000000004438 -0.5 0  0.3300000000004716 -0.5 0  0.3200000000004993 -0.5 0  0.3100000000005271 -0.5 0  0.3000000000005548 -0.5 0  0.2900000000005825 -0.5 0  0.2800000000006103 -0.5 0  0.2700000000006381 -0.5 0  0.2600000000006658 -0.5 0  0.2500000000006935 -0.5 0  0.2400000000007212 -0.5 0  0.230000000000749 -0.5 0  0.2200000000007767 -0.5 0  0.2100000000008044 -0.5 0  0.2000000000008322 -0.5 0  0.19000000000086 -0.5 0  0.1800000000008877 -0.5 0  0.1700000000009154 -0.5 0  0.1600000000009431 -0.5 0  0.1500000000009709 -0.5 0  0.1400000000009986 -0.5 0  0.1300000000010264 -0.5 0  0.1200000000010541 -0.5 0  0.1100000000010818 -0.5 0  0.1000000000011096 -0.5 0  0.09000000000113734 -0.5 0  0.08000000000116503 -0.5 0  0.07000000000119283 -0.5 0  0.06000000000122058 -0.5 0  0.05000000000124827 -0.5 0  0.04000000000127607 -0.5 0  0.03000000000130376 -0.5 0  0.02000000000133151 -0.5 0  0.01000000000135925 -0.5 0  1.376121439022882e-12 -0.5 0  -0.009999999998640763 -0.5 0  -0.01999999999866864 -0.5 0  -0.02999999999869629 -0.5 0  -0.03999999999872406 -0.5 0  -0.04999999999875182 -0.5 0  -0.05999999999877947 -0.5 0  -0.06999999999880724 -0.5 0  -0.079999999998835 -0.5 0  -0.08999999999886266 -0.5 0  -0.09999999999889042 -0.5 0  -0.1099999999989182 -0.5 0  -0.1199999999989459 -0.5 0  -0.1299999999989737 -0.5 0  -0.1399999999990014 -0.5 0  -0.1499999999990291 -0.5 0  -0.1599999999990568 -0.5 0  -0.1699999999990847 -0.5 0  -0.1799999999991124 -0.5 0  -0.1899999999991401 -0.5 0  -0.1999999999991678 -0.5 0  -0.2099999999991955 -0.5 0  -0.2199999999992234 -0.5 0  -0.2299999999992511 -0.5 0  -0.2399999999992788 -0.5 0  -0.2499999999993066 -0.5 0  -0.2599999999993342 -0.5 0  -0.269999999999362 -0.5 0  -0.2799999999993897 -0.5 0  -0.2899999999994175 -0.5 0  -0.2999999999994452 -0.5 0  -0.3099999999994729 -0.5 0  -0.3199999999995007 -0.5 0  -0.3299999999995284 -0.5 0  -0.3399999999995562 -0.5 0  -0.3499999999995839 -0.5 0  -0.3599999999996116 -0.5 0  -0.3699999999996393 -0.5 0  -0.379999999999667 -0.5 0  -0.3899999999996949 -0.5 0  -0.3999999999997226 -0.5 0  -0.4099999999997503 -0.5 0  -0.419999999999778 -0.5 0  -0.4299999999998058 -0.5 0  -0.4399999999998336 -0.5 0  -0.4499999999998613 -0.5 0  -0.4599999999998891 -0.5 0  -0.4699999999999167 -0.5 0  -0.4799999999999445 -0.5 0  -0.4899999999999722 -0.5 0  -0.5 -0.4900000000000277 0  -0.5 -0.4800000000000555 0  -0.5 -0.4700000000000832 0  -0.5 -0.4600000000001109 0  -0.5 -0.4500000000001387 0  -0.5 -0.4400000000001664 0  -0.5 -0.4300000000001942 0  -0.5 -0.4200000000002219 0  -0.5 -0.4100000000002497 0  -0.5 -0.4000000000002774 0  -0.5 -0.3900000000003052 0  -0.5 -0.3800000000003328 0  -0.5 -0.3700000000003606 0  -0.5 -0.3600000000003883 0  -0.5 -0.3500000000004161 0  -0.5 -0.3400000000004438 0  -0.5 -0.3300000000004716 0  -0.5 -0.3200000000004993 0  -0.5 -0.3100000000005271 0  -0.5 -0.3000000000005548 0  -0.5 -0.2900000000005825 0  -0.5 -0.2800000000006103 0  -0.5 -0.2700000000006381 0  -0.5 -0.2600000000006658 0  -0.5 -0.2500000000006935 0  -0.5 -0.2400000000007212 0  -0.5 -0.230000000000749 0  -0.5 -0.2200000000007767 0  -0.5 -0.2100000000008044 0  -0.5 -0.2000000000008322 0  -0.5 -0.19000000000086 0  -0.5 -0.1800000000008877 0  -0.5 -0.1700000000009154 0  -0.5 -0.1600000000009431 0  -0.5 -0.1500000000009709 0  -0.5 -0.1400000000009986 0  -0.5 -0.1300000000010264 0  -0.5 -0.1200000000010541 0  -0.5 -0.1100000000010818 0  -0.5 -0.1000000000011096 0  -0.5 -0.09000000000113734 0  -0.5 -0.08000000000116503 0  -0.5 -0.07000000000119283 0  -0.5 -0.06000000000122058 0  -0.5 -0.05000000000124827 0  -0.5 -0.04000000000127607 0  -0.5 -0.03000000000130376 0  -0.5 -0.02000000000133151 0  -0.5 -0.01000000000135925 0  -0.5 -1.376121439022882e-12 0  -0.5 0.009999999998640763 0  -0.5 0.01999999999866864 0  -0.5 0.02999999999869629 0  -0.5 0.03999999999872406 0  -0.5 0.04999999999875182 0  -0.5 0.05999999999877947 0  -0.5 0.06999999999880724 0  -0.5 0.079999999998835 0  -0.5 0.08999999999886266 0  -0.5 0.09999999999889042
[...]
<PointData  Vectors="f_27-0"> 
<DataArray  type="Float64"  Name="f_27-0"  NumberOfComponents="3" format="ascii">9.3185467887019788e-04 4.5345346016299894e-02 0.0000000000000000e+00  -1.3215339505393373e-03 4.5242907150279850e-02 0.0000000000000000e+00  6.5946427483366246e-05 4.0188175444441268e-02 0.0000000000000000e+00  1.0034010107464928e-04 4.0129151514222076e-02 0.0000000000000000e+00  -1.5148303247249190e-03 6.3457543164577926e-03 0.0000000000000000e+00  1.4840830464445975e-03 6.3397112844180391e-03 0.0000000000000000e+00  -1.1067673968169181e-03 6.3397437515709002e-03 0.0000000000000000e+00  1.1424670654938953e-03 6.2769827149618254e-03 0.0000000000000000e+00  2.0519053665629962e-03 4.4684984590997547e-02 0.0000000000000000e+00  3.1349981445892585e-03 4.3956921302075257e-02 0.0000000000000000e+00  4.1762481426724793e-03 4.3165098348658101e-02 0.0000000000000000e+00  5.1728210363645314e-03 4.2312800176507764e-02 0.0000000000000000e+00  6.1199781297630413e-03 4.1405136808045036e-02 0.0000000000000000e+00  7.0157720059102566e-03 4.0445558052383673e-02 0.0000000000000000e+00  7.8560546345806705e-03 3.9440424395137799e-02 0.0000000000000000e+00  8.6397156353778815e-03 3.8393727121251414e-02 0.0000000000000000e+00  9.3642053638400349e-03 3.7310718418688604e-02 0.0000000000000000e+00  1.0027016165715632e-02 3.6197369232698104e-02 0.0000000000000000e+00  1.0628498695705075e-02 3.5058781248032418e-02 0.0000000000000000e+00  1.1167604270530922e-02 3.3899593643135981e-02 0.0000000000000000e+00  1.1643931542691995e-02 3.2725801445659806e-02 0.0000000000000000e+00  1.2058188416912417e-02 3.1541204054442287e-02 0.0000000000000000e+00  1.2409472860107124e-02 3.0352913870835118e-02 0.0000000000000000e+00  1.2700007927792637e-02 2.9163984332004740e-02 0.0000000000000000e+00  1.2930586483625073e-02 2.7978810749193131e-02 0.0000000000000000e+00  1.3102061279945919e-02 2.6802851094856635e-02 0.0000000000000000e+00  1.3216606998964434e-02 2.5639926818460418e-02 0.0000000000000000e+00  1.3276219650258830e-02 2.4492680450126925e-02 0.0000000000000000e+00  1.3282357682437653e-02 2.3365433175782824e-02 0.0000000000000000e+00  1.3237679240244391e-02 2.2260598974388889e-02 0.0000000000000000e+00  1.3144361944146452e-02 2.1180968785973510e-02 0.0000000000000000e+00  1.3004285917613495e-02 2.0130711726423813e-02 0.0000000000000000e+00  1.2820181704002190e-02 1.9110574410014704e-02 0.0000000000000000e+00  1.2594722857874377e-02 1.8122900424264170e-02 0.0000000000000000e+00  1.2329838361289307e-02 1.7169441965253079e-02 0.0000000000000000e+00  1.2028011557461870e-02 1.6252488885184248e-02 0.0000000000000000e+00  1.1691960860360321e-02 1.5371696306397110e-02 0.0000000000000000e+00  1.1323893137894269e-02 1.4529249099772809e-02 0.0000000000000000e+00  1.0925844460304786e-02 1.3725989231622731e-02 0.0000000000000000e+00  1.0500191093567608e-02 1.2962638155841283e-02 0.0000000000000000e+00  1.0049034316962125e-02 1.2240161466368154e-02 0.0000000000000000e+00  9.5745376450421370e-03 1.1558192894177829e-02 0.0000000000000000e+00  9.0783582596671228e-03 1.0917304392438126e-02 0.0000000000000000e+00  8.5624903682355417e-03 1.0317238431218755e-02 0.0000000000000000e+00  8.0289096504249247e-03 9.7592850858145390e-03 0.0000000000000000e+00  7.4789673674479761e-03 9.2425875917614263e-03 0.0000000000000000e+00  6.9145063501638232e-03 8.7670387996580269e-03 0.0000000000000000e+00  6.3369975989096272e-03 8.3335147883562850e-03 0.0000000000000000e+00  5.7480979889713880e-03 7.9412195858585277e-03 0.0000000000000000e+00  5.1491326231958810e-03 7.5895129662296879e-03 0.0000000000000000e+00  4.5410013607021689e-03 7.2798007318712410e-03 0.0000000000000000e+00  3.9252121603192778e-03 7.0107561168839894e-03 0.0000000000000000e+00  3.3028848779326470e-03 6.7825629087886891e-03 0.0000000000000000e+00  2.6750256458003322e-03 6.5948290405871543e-03 0.0000000000000000e+00  2.0432443365049481e-03 6.4481542624735978e-03 0.0000000000000000e+00  1.4080795101359849e-03 6.3416977645319597e-03 0.0000000000000000e+00  7.7107453866708485e-04 6.2753193503372814e-03 0.0000000000000000e+00  1.3261074448989632e-04 6.2497897407724733e-03 0.0000000000000000e+00  -5.0597297467395411e-04 6.2645823385791520e-03 0.0000000000000000e+00  -1.1434409161087471e-03 6.3189867512831351e-03 0.0000000000000000e+00  -1.7791346367653366e-03 6.4136550299331817e-03 0.0000000000000000e+00  -2.4117590590597292e-03 6.5491110890501031e-03 0.0000000000000000e+00  -3.0405586654979342e-03 6.7254194092910584e-03 0.0000000000000000e+00  -3.6641582593835492e-03 6.9420655353992014e-03 0.0000000000000000e+00  -4.2816365119941668e-03 7.1994819449590457e-03 0.0000000000000000e+00  -4.8916774834312495e-03 7.4975224653045054e-03 0.0000000000000000e+00  -5.4933515682320661e-03 7.8367262508522838e-03 0.0000000000000000e+00  -6.0852682188165096e-03 8.2165318372650741e-03 0.0000000000000000e+00  -6.6658449633459228e-03 8.6382699128390861e-03 0.0000000000000000e+00  -7.2342412896790401e-03 9.1008131684785169e-03 0.0000000000000000e+00  -7.7883528812437439e-03 9.6046396549482362e-03 0.0000000000000000e+00  -8.3269533393536353e-03 1.0149849322647031e-02 0.0000000000000000e+00  -8.8484694029020913e-03 1.0736200215040360e-02 0.0000000000000000e+00  -9.3508237070789643e-03 1.1363638466125104e-02 0.0000000000000000e+00  -9.8328018293775497e-03 1.2032394868498343e-02 0.0000000000000000e+00  -1.0291565313895138e-02 1.2742150979205124e-02 0.0000000000000000e+00  -1.0726285987202358e-02 1.3492047994375787e-02 0.0000000000000000e+00  -1.1133750077848599e-02 1.4282014468328021e-02 0.0000000000000000e+00  -1.1512534707477814e-02 1.5111901380626068e-02 0.0000000000000000e+00  -1.1860459620018625e-02 1.5979114435243923e-02 0.0000000000000000e+00  -1.2174919339182582e-02 1.6883327530507683e-02 0.0000000000000000e+00  -1.2453942185397237e-02 1.7824584026869927e-02 0.0000000000000000e+00  -1.2694535945538637e-02 1.8800587389504811e-02 0.0000000000000000e+00  -1.2895364835544433e-02 1.9809667629375485e-02 0.0000000000000000e+00  -1.3052547201292298e-02 2.0850652806189255e-02 0.0000000000000000e+00  -1.3164936306269562e-02 2.1919493828529639e-02 0.0000000000000000e+00  -1.3229623852071666e-02 2.3015800379488562e-02 0.0000000000000000e+00  -1.3244242263355299e-02 2.4136153717845384e-02 0.0000000000000000e+00  -1.3206878850427345e-02 2.5277491524938522e-02 0.0000000000000000e+00  -1.3115095582387040e-02 2.6436331215049957e-02 0.0000000000000000e+00  -1.2967378270197585e-02 2.7609496378612500e-02 0.0000000000000000e+00  -1.2761113483718249e-02 2.8793887756621360e-02 0.0000000000000000e+00  -1.2495978821979380e-02 2.9983249429799890e-02 0.0000000000000000e+00  -1.2170043929676692e-02 3.1174769351861920e-02 0.0000000000000000e+00  -1.1781913177362451e-02 3.2364076100712159e-02 0.0000000000000000e+00  -1.1331309169753393e-02 3.3545479447371004e-02 0.0000000000000000e+00  -1.0817932174274599e-02 3.4714004687588569e-02 0.0000000000000000e+00  -1.0241863194002748e-02 3.5864376764542287e-02 0.0000000000000000e+00  -9.6034579695973461e-03 3.6991588535401798e-02 0.0000000000000000e+00  -8.9026506421602761e-03 3.8091138113809098e-02 0.0000000000000000e+00  -8.1418039523512460e-03 3.9156456221033531e-02 0.0000000000000000e+00  -7.3223452441039845e-03 4.0182708319472855e-02 0.0000000000000000e+00  -6.4457757917324408e-03 4.1165327458527717e-02 0.0000000000000000e+00  -5.5162293802075990e-03 4.2097398249526699e-02 0.0000000000000000e+00  -4.5347987140745127e-03 4.2976074224339259e-02 0.0000000000000000e+00  -3.5058825516303305e-03 4.3795735510466734e-02 0.0000000000000000e+00  -2.4335284303876391e-03 4.4552503987486301e-02 0.0000000000000000e+00  -1.5759164173973655e-03 4.6401071000244126e-02 0.0000000000000000e+00  -1.8483010193854166e-03 4.7615529806958309e-02 0.0000000000000000e+00  -2.1382461722929264e-03 4.8892256634632272e-02 0.0000000000000000e+00  -2.4478100093241529e-03 5.0232862331278959e-02 0.0000000000000000e+00  -2.7777674374166667e-03 5.1643568946637040e-02 0.0000000000000000e+00  -3.1311477319495482e-03 5.3126911202016042e-02 0.0000000000000000e+00  -3.5039331825485018e-03 5.4688205233928699e-02 0.0000000000000000e+00  -3.9034213925320431e-03 5.6333621602903478e-02 0.0000000000000000e+00  -4.3301374602035189e-03 5.8067378376172284e-02 0.0000000000000000e+00  -4.7824065583321968e-03 5.9897163029894118e-02 0.0000000000000000e+00  -5.2641848187303117e-03 6.1828945859836275e-02 0.0000000000000000e+00  -5.7786548039000848e-03 6.3868672886039687e-02 0.0000000000000000e+00  -6.3275755457869445e-03 6.6026163637746230e-02 0.0000000000000000e+00  -6.9155665566732940e-03 6.8305651406793150e-02 0.0000000000000000e+00  -7.5419391112750579e-03 7.0719588022423216e-02 0.0000000000000000e+00  -8.2130669366758825e-03 7.3275785703030186e-02 0.0000000000000000e+00  -8.9349232432545493e-03 7.5979894913902446e-02 0.0000000000000000e+00  -9.7060023752830963e-03 7.8846697935097743e-02 0.0000000000000000e+00  -1.0533344439569331e-02 8.1881738729233558e-02 0.0000000000000000e+00  -1.1424930799816277e-02 8.5090612385767275e-02 0.0000000000000000e+00  -1.2379346603396233e-02 8.8485810178042690e-02 0.0000000000000000e+00  -1.3402311429974226e-02 9.2067494478576845e-02 0.0000000000000000e+00  -1.4490069172186945e-02 9.5837735517346201e-02 0.0000000000000000e+00  -1.5633158823824333e-02 9.9794673827032485e-02 0.0000000000000000e+00  -1.6809616522987354e-02 1.0393243574832166e-01 0.0000000000000000e+00  -1.7996013458443892e-02 1.0821981450203917e-01 0.0000000000000000e+00  -1.9122953936961902e-02 1.1263397926192420e-01 0.0000000000000000e+00  -2.0117649448067820e-02 1.1712209554016755e-01 0.0000000000000000e+00  -2.0822752458748893e-02 1.2160751053717028e-01 0.0000000000000000e+00  -2.1067684061755257e-02 1.2600296681327666e-01 0.0000000000000000e+00  -2.0583080246656560e-02 1.3017640012167414e-01 0.0000000000000000e+00  -1.9035424175286333e-02 1.3396532208479786e-01 0.0000000000000000e+00  -1.6000063656988826e-02 1.3714357681706396e-01 0.0000000000000000e+00  -1.0989415633118095e-02 1.3948879245070786e-01 0.0000000000000000e+00  -3.4962854758077799e-03 1.4069395631689302e-01 0.0000000000000000e+00  6.8719164136795937e-03 1.4051071916922228e-01 0.0000000000000000e+00  2.0183596944625966e-02 1.3860886773726486e-01 0.0000000000000000e+00  3.5957353062718127e-02 1.3488986856329049e-01 0.0000000000000000e+00  5.2693974641939041e-02 1.2909365278037493e-01 0.0000000000000000e+00  6.7754361186624243e-02 1.2146056612075641e-01 0.0000000000000000e+00  7.7389193287302108e-02 1.1182177579329303e-01 0.0000000000000000e+00  7.7364155616633415e-02 1.0043939875931771e-01 0.0000000000000000e+00  6.2903117928927374e-02 8.8198651382489432e-02 0.0000000000000000e+00  3.2547188309759889e-02 7.7200699140107631e-02 0.0000000000000000e+00  -1.0497734989225273e-02 7.1276387880282899e-02 0.0000000000000000e+00  -5.3361795795235006e-02 7.4927925568252354e-02 0.0000000000000000e+00  -7.8497357086731792e-02 9.0139848271036271e-02 0.0000000000000000e+00  -7.9534997728445092e-02 1.1240546740177104e-01 0.0000000000000000e+00  -6.5701038469995920e-02 1.3340339541642457e-01 0.0000000000000000e+00  -4.9761774183303284e-02 1.4849343577607066e-01 0.0000000000000000e+00  -3.6523074916056102e-02 1.5812189414156960e-01 0.0000000000000000e+00  -2.5906162061762213e-02 1.6383523184707993e-01 0.0000000000000000e+00  -1.7296945001426471e-02 1.6672965484219740e-01 0.0000000000000000e+00  -1.0215543481448217e-02 1.6753026802116242e-01 0.0000000000000000e+00  -4.4204782912606972e-03 1.6673301666665483e-01 0.0000000000000000e+00  3.2210726119296463e-04 1.6470484855119646e-01 0.0000000000000000e+00  4.1321043489415165e-03 1.6174463288754079e-01 0.0000000000000000e+00  7.1446810127539975e-03 1.5806864999087183e-01 0.0000000000000000e+00  9.4620073126318403e-03 1.5387695418154640e-01 0.0000000000000000e+00  1.1182996982060704e-02 1.4932046892877437e-01 0.0000000000000000e+00  1.2400239904997222e-02 1.4452346967080809e-01 0.0000000000000000e+00  1.3195968512918934e-02 1.3959174927244225e-01 0.0000000000000000e+00  1.3646813652601474e-02 1.3461460618675095e-01 0.0000000000000000e+00  1.3818738237329591e-02 1.2965609683811014e-01 0.0000000000000000e+00  1.3769261690510211e-02 1.2477108850960911e-01 0.0000000000000000e+00  1.3550132604937310e-02 1.1999521928470452e-01 0.0000000000000000e+00  1.3203393520635437e-02 1.1536453104121260e-01 0.0000000000000000e+00  1.2769368591949369e-02 1.1088488626746680e-01 0.0000000000000000e+00  1.2269919997278413e-02 1.0658752928762449e-01 0.0000000000000000e+00  1.1730806492218261e-02 1.0246498864281869e-01 0.0000000000000000e+00  1.1164277918818379e-02 9.8528517610934813e-02 0.0000000000000000e+00  1.0582002745193110e-02 9.4777859823551469e-02 0.0000000000000000e+00  9.9959341308135385e-03 9.1212582281013421e-02 0.0000000000000000e+00  9.4172727482384512e-03 8.7821195127041743e-02 0.0000000000000000e+00  8.8497586529834721e-03 8.4597790575882209e-02 0.0000000000000000e+00  8.2928141773382612e-03 8.1543887138972801e-02 0.0000000000000000e+00  7.7552493504318499e-03 7.8641518912335562e-02 0.0000000000000000e+00  7.2290762199534210e-03 7.5891089007943779e-02 0.0000000000000000e+00  6.7233653546561155e-03 7.3279722736664457e-02 0.0000000000000000e+00  6.2367403601706851e-03 7.0802976587729660e-02 0.0000000000000000e+00  5.7680156734060579e-03 6.8452602762715947e-02 0.0000000000000000e+00  5.3182810367066900e-03 6.6220127145416474e-02 0.0000000000000000e+00  4.8874473482254065e-03 6.4101350536951748e-02 0.0000000000000000e+00  4.4755162262575350e-03 6.2086307325038496e-02 0.0000000000000000e+00  4.0797448622244860e-03 6.0172639206409861e-02 0.0000000000000000e+00  3.7026035358578178e-03 5.8351121909871566e-02 0.0000000000000000e+00  3.3441380892029601e-03 5.6618608425339292e-02 0.0000000000000000e+00  3.0018814968970583e-03 5.4968481792741969e-02 0.0000000000000000e+00  2.6758178728513416e-03 5.3397586171253411e-02 0.0000000000000000e+00  2.3648766815412723e-03 5.1899783506325778e-02 0.0000000000000000e+00  2.0704808951500526e-03 5.0472263221562216e-02 0.0000000000000000e+00  1.7923595298832053e-03 4.9109584304938808e-02 0.0000000000000000e+00  1.5289370165834267e-03 4.7809755724018188e-02 0.0000000000000000e+00  1.2794574687911471e-03 4.6568561063250108e-02 0.0000000000000000e+00  1.0447277497396665e-03 4.5382605435224002e-02 0.0000000000000000e+00  8.2248817617941905e-04 4.4249669551000730e-02 0.0000000000000000e+00  6.1372711954977958e-04 4.3165650718374159e-02 0.0000000000000000e+00  4.1886568160069270e-04 4.2128680491784719e-02 0.0000000000000000e+00  2.3643951588301154e-04 4.1136970871485233e-02 0.0000000000000000e+00  9.8025378451530184e-04 3.9638132628681516e-02 0.0000000000000000e+00  1.8650296072945725e-03 3.9035846486599510e-02 0.0000000000000000e+00  2.7181378751810854e-03 3.8383386723195120e-02 0.0000000000000000e+00  3.5360492068181410e-03 3.7684287522941978e-02 0.0000000000000000e+00  4.3169192536455210e-03 3.6940991155989610e-02 0.0000000000000000e+00  5.0576701625479024e-03 3.6157908277210188e-02 0.0000000000000000e+00  5.7569215293158862e-03 3.5337368157720886e-02 0.0000000000000000e+00  6.4121610883575049e-03 3.4483847507695203e-02 0.0000000000000000e+00  7.0218951864044711e-03 3.3600656542270131e-02 0.0000000000000000e+00  7.5856976070183459e-03 3.2690804533240608e-02 0.0000000000000000e+00  8.1018073382293099e-03 3.1758739293512625e-02 0.0000000000000000e+00  8.5695706713666154e-03 3.0809214423073113e-02 0.0000000000000000e+00  8.9885104251837752e-03 2.9845076953437633e-02 0.0000000000000000e+00  9.3580367000755324e-03 2.8870869084168943e-02 0.0000000000000000e+00  9.6793671149462031e-03 2.7888872697845228e-02 0.0000000000000000e+00  9.9519499044615056e-03 2.6903982715665815e-02 0.0000000000000000e+00  1.0176402124824076e-02 2.5919797929991037e-02 0.0000000000000000e+00  1.0353791703074478e-02 2.4939264734759731e-02 0.0000000000000000e+00  1.0484816850553384e-02 2.3965291830301192e-02 0.0000000000000000e+00  1.0570446564454468e-02 2.3001826197950895e-02 0.0000000000000000e+00  1.0612182383688650e-02 2.2051167730759585e-02 0.0000000000000000e+00  1.0611174940059219e-02 2.1116560860815266e-02 0.0000000000000000e+00  1.0568788381496212e-02 2.0200564032054044e-02 0.0000000000000000e+00  1.0487188207868956e-02 1.9304472508284251e-02 0.0000000000000000e+00  1.0367542338083088e-02 1.8431304223067442e-02 0.0000000000000000e+00  1.0211527381742911e-02 1.7582862773220475e-02 0.0000000000000000e+00  1.0021093074780616e-02 1.6761035275200495e-02 0.0000000000000000e+00  9.7980697066196113e-03 1.5966622327111459e-02 0.0000000000000000e+00  9.5440834404484070e-03 1.5202377923122470e-02 0.0000000000000000e+00  9.2607783883366691e-03 1.4468804962033444e-02 0.0000000000000000e+00  8.9502902394286484e-03 1.3767014999890727e-02 0.0000000000000000e+00  8.6141695821923235e-03 1.3097967112135640e-02 0.0000000000000000e+00  8.2542669393021531e-03 1.2462319038369593e-02 0.0000000000000000e+00  7.8720354398360472e-03 1.1861298957227944e-02 0.0000000000000000e+00  7.4693521534981381e-03 1.1295036939879568e-02 0.0000000000000000e+00  7.0478629180638604e-03 1.0764617051158481e-02 0.0000000000000000e+00  6.6087821676346454e-03 1.0269662111750422e-02 0.0000000000000000e+00  6.1539384946999618e-03 9.8110281498869946e-03 0.0000000000000000e+00  5.6845391222232833e-03 9.3886765856486046e-03 0.0000000000000000e+00  5.2024630457025642e-03 9.0025680328244730e-03 0.0000000000000000e+00  4.7088191316902303e-03 8.6537295043523678e-03 0.0000000000000000e+00  4.2048224920688045e-03 8.3425991913722072e-03 0.0000000000000000e+00  3.6918808071012489e-03 8.0677278188519101e-03 0.0000000000000000e+00  3.1709939917157516e-03 7.8299973781873842e-03 0.0000000000000000e+00  2.6434809738714615e-03 7.6292803246150480e-03 0.0000000000000000e+00  2.1106798807863608e-03 7.4656640491540934e-03 0.0000000000000000e+00  1.5734691613266084e-03 7.3386800045985726e-03 0.0000000000000000e+00  1.0335088310281348e-03 7.2492370587622524e-03 0.0000000000000000e+00  4.9134453556279756e-04 7.1973909754157123e-03 0.0000000000000000e+00  -5.1648601858997167e-05 7.1822577703202989e-03 0.0000000000000000e+00  -5.9455998794244523e-04 7.2039533978327545e-03 0.0000000000000000e+00  -1.1362479489202540e-03 7.2631041636399942e-03 0.0000000000000000e+00  -1.6752854050833977e-03 7.3596072279743874e-03 0.0000000000000000e+00  -2.2108173258841837e-03 7.4931228324837543e-03 0.0000000000000000e+00  -2.7417092016898000e-03 7.6634832547308809e-03 0.0000000000000000e+00  -3.2670853312303434e-03 7.8707795548577184e-03 0.0000000000000000e+00  -3.7853005428394905e-03 8.1148317332312946e-03 0.0000000000000000e+00  -4.2954722319439431e-03 8.3962488741091516e-03 0.0000000000000000e+00  -4.7961554048602268e-03 8.7145242643691095e-03 0.0000000000000000e+00  -5.2860653367938909e-03 9.0699324821573116e-03 0.0000000000000000e+00  -5.7641565002836924e-03 9.4613073001079163e-03 0.0000000000000000e+00  -6.2286235521163006e-03 9.8895814401491200e-03 0.0000000000000000e+00  -6.6786185978371720e-03 1.0353991226534406e-02 0.0000000000000000e+00  -7.1122995577101670e-03 1.0854290630287065e-02 0.0000000000000000e+00  -7.5281268383457969e-03 1.1390336898914971e-02 0.0000000000000000e+00  -7.9247148926016708e-03 1.1961672681683281e-02 0.0000000000000000e+00  -8.3001403526377516e-03 1.2567467839197438e-02 0.0000000000000000e+00  -8.6533867952375207e-03 1.3206865287899414e-02 0.0000000000000000e+00  -8.9819414355991924e-03 1.3879749280416138e-02 0.0000000000000000e+00  -9.2849940571858545e-03 1.4584830550727807e-02 0.0000000000000000e+00  -9.5602284664413409e-03 1.5320992011495865e-02 0.0000000000000000e+00  -9.8058061247760352e-03 1.6088119470611711e-02 0.0000000000000000e+00  -1.0020228022084070e-02 1.6884542623912601e-02 0.0000000000000000e+00  -1.0201788525202269e-02 1.7707785565164880e-02 0.0000000000000000e+00  -1.0348918619186598e-02 1.8557193722579746e-02 0.0000000000000000e+00  -1.0459125642433462e-02 1.9430649103946783e-02 0.0000000000000000e+00  -1.0531854897983167e-02