<?xml version="1.0"?>
<VTKFile type="UnstructuredGrid"  version="0.1"  >
<UnstructuredGrid>
<Piece  NumberOfPoints="16275" NumberOfCells="32468">
<Points>
<DataArray  type="Float64"  NumberOfComponents="3"  format="ascii">-0.5 0.5 0  0.5 0.5 0  0.5 -0.5 0  -0.5 -0.5 0  -1 1 0  1 1 0  1 -1 0  -1 -1 0  -0.4900000000000277 0.5 0  -0.4800000000000555 0.5 0  -0.4700000000000832 0.5 0  -0.4600000000001109 0.5 0  -0.4500000000001387 0.5 0  -0.4400000000001664 0.5 0  -0.4300000000001942 0.5 0  -0.4200000000002219 0.5 0  -0.4100000000002497 0.5 0  -0.4000000000002774 0.5 0  -0.3900000000003052 0.5 0  -0.3800000000003328 0.5 0  -0.3700000000003606 0.5 0  -0.3600000000003883 0.5 0  -0.3500000000004161 0.5 0  -0.3400000000004438 0.5 0  -0.3300000000004716 0.5 0  -0.3200000000004993 0.5 0  -0.3100000000005271 0.5 0  -0.3000000000005548 0.5 0  -0.2900000000005825 0.5 0  -0.2800000000006103 0.5 0  -0.2700000000006381 0.5 0  -0.2600000000006658 0.5 0  -0.2500000000006935 0.5 0  -0.2400000000007212 0.5 0  -0.230000000000749 0.5 0  -0.2200000000007767 0.5 0  -0.2100000000008044 0.5 0  -0.2000000000008322 0.5 0  -0.19000000000086 0.5 0  -0.1800000000008877 0.5 0  -0.1700000000009154 0.5 0  -0.1600000000009431 0.5 0  -0.1500000000009709 0.5 0  -0.1400000000009986 0.5 0  -0.1300000000010264 0.5 0  -0.1200000000010541 0.5 0  -0.1100000000010818 0.5 0  -0.1000000000011096 0.5 0  -0.09000000000113734 0.5 0  -0.08000000000116503 0.5 0  -0.07000000000119283 0.5 0  -0.06000000000122058 0.5 0  -0.05000000000124827 0.5 0  -0.04000000000127607 0.5 0  -0.03000000000130376 0.5 0  -0.02000000000133151 0.5 0  -0.01000000000135925 0.5 0  -1.376121439022882e-12 0.5 0  0.009999999998640763 0.5 0  0.01999999999866864 0.5 0  0.02999999999869629 0.5 0  0.03999999999872406 0.5 0  0.04999999999875182 0.5 0  0.05999999999877947 0.5 0  0.06999999999880724 0.5 0  0.079999999998835 0.5 0  0.08999999999886266 0.5 0  0.09999999999889042 0.5 0  0.1099999999989182 0.5 0  0.1199999999989459 0.5 0  0.1299999999989737 0.5 0  0.1399999999990014 0.5 0  0.1499999999990291 0.5 0  0.1599999999990568 0.5 0  0.1699999999990847 0.5 0  0.1799999999991124 0.5 0  0.1899999999991401 0.5 0  0.1999999999991678 0.5 0  0.2099999999991955 0.5 0  0.2199999999992234 0.5 0  0.2299999999992511 0.5 0  0.2399999999992788 0.5 0  0.2499999999993066 0.5 0  0.2599999999993342 0.5 0  0.269999999999362 0.5 0  0.2799999999993897 0.5 0  0.2899999999994175 0.5 0  0.2999999999994452 0.5 0  0.3099999999994729 0.5 0  0.3199999999995007 0.5 0  0.3299999999995284 0.5 0  0.3399999999995562 0.5 0  0.3499999999995839 0.5 0  0.3599999999996116 0.5 0  0.3699999999996393 0.5 0  0.379999999999667 0.5 0  0.3899999999996949 0.5 0  0.3999999999997226 0.5 0  0.4099999999997503 0.5 0  0.419999999999778 0.5 0  0.4299999999998058 0.5 0  0.4399999999998336 0.5 0  0.4499999999998613 0.5 0  0.4599999999998891 0.5 0  0.4699999999999167 0.5 0  0.4799999999999445 0.5 0  0.4899999999999722 0.5 0  0.5 0.4900000000000277 0  0.5 0.4800000000000555 0  0.5 0.4700000000000832 0  0.5 0.4600000000001109 0  0.5 0.4500000000001387 0  0.5 0.4400000000001664 0  0.5 0.4300000000001942 0  0.5 0.4200000000002219 0  0.5 0.4100000000002497 0  0.5 0.4000000000002774 0  0.5 0.3900000000003052 0  0.5 0.3800000000003328 0  0.5 0.3700000000003606 0  0.5 0.3600000000003883 0  0.5 0.3500000000004161 0  0.5 0.3400000000004438 0  0.5 0.3300000000004716 0  0.5 0.3200000000004993 0  0.5 0.3100000000005271 0  0.5 0.3000000000005548 0  0.5 0.2900000000005825 0  0.5 0.2800000000006103 0  0.5 0.2700000000006381 0  0.5 0.2600000000006658 0  0.5 0.2500000000006935 0  0.5 0.2400000000007212 0  0.5 0.230000000000749 0  0.5 0.2200000000007767 0  0.5 0.2100000000008044 0  0.5 0.2000000000008322 0  0.5 0.19000000000086 0  0.5 0.1800000000008877 0  0.5 0.1700000000009154 0  0.5 0.1600000000009431 0  0.5 0.1500000000009709 0  0.5 0.1400000000009986 0  0.5 0.1300000000010264 0  0.5 0.1200000000010541 0  0.5 0.1100000000010818 0  0.5 0.1000000000011096 0  0.5 0.09000000000113734 0  0.5 0.08000000000116503 0  0.5 0.07000000000119283 0  0.5 0.06000000000122058 0  0.5 0.05000000000124827 0  0.5 0.04000000000127607 0  0.5 0.03000000000130376 0  0.5 0.02000000000133151 0  0.5 0.01000000000135925 0  0.5 1.376121439022882e-12 0  0.5 -0.009999999998640763 0  0.5 -0.01999999999866864 0  0.5 -0.02999999999869629 0  0.5 -0.03999999999872406 0  0.5 -0.04999999999875182 0  0.5 -0.05999999999877947 0  0.5 -0.06999999999880724 0  0.5 -0.079999999998835 0  0.5 -0.08999999999886266 0  0.5 -0.09999999999889042 0  0.5 -0.1099999999989182 0  0.5 -0.1199999999989459 0  0.5 -0.1299999999989737 0  0.5 -0.1399999999990014 0  0.5 -0.1499999999990291 0  0.5 -0.1599999999990568 0  0.5 -0.1699999999990847 0  0.5 -0.1799999999991124 0  0.5 -0.1899999999991401 0  0.5 -0.1999999999991678 0  0.5 -0.2099999999991955 0  0.5 -0.2199999999992234 0  0.5 -0.2299999999992511 0  0.5 -0.2399999999992788 0  0.5 -0.2499999999993066 0  0.5 -0.2599999999993342 0  0.5 -0.269999999999362 0  0.5 -0.2799999999993897 0  0.5 -0.2899999999994175 0  0.5 -0.2999999999994452 0  0.5 -0.3099999999994729 0  0.5 -0.3199999999995007 0  0.5 -0.3299999999995284 0  0.5 -0.3399999999995562 0  0.5 -0.3499999999995839 0  0.5 -0.3599999999996116 0  0.5 -0.3699999999996393 0  0.5 -0.379999999999667 0  0.5 -0.3899999999996949 0  0.5 -0.3999999999997226 0  0.5 -0.4099999999997503 0  0.5 -0.419999999999778 0  0.5 -0.4299999999998058 0  0.5 -0.4399999999998336 0  0.5 -0.4499999999998613 0  0.5 -0.4599999999998891 0  0.5 -0.4699999999999167 0  0.5 -0.4799999999999445 0  0.5 -0.4899999999999722 0  0.4900000000000277 -0.5 0  0.4800000000000555 -0.5 0  0.4700000000000832 -0.5 0  0.4600000000001109 -0.5 0  0.4500000000001387 -0.5 0  0.4400000000001664 -0.5 0  0.4300000000001942 -0.5 0  0.4200000000002219 -0.5 0  0.4100000000002497 -0.5 0  0.4000000000002774 -0.5 0  0.3900000000003052 -0.5 0  0.3800000000003328 -0.5 0  0.3700000000003606 -0.5 0  0.3600000000003883 -0.5 0  0.3500000000004161 -0.5 0  0.3400000000004438 -0.5 0  0.3300000000004716 -0.5 0  0.3200000000004993 -0.5 0  0.3100000000005271 -0.5 0  0.3000000000005548 -0.5 0  0.2900000000005825 -0.5 0  0.2800000000006103 -0.5 0  0.2700000000006381 -0.5 0  0.2600000000006658 -0.5 0  0.2500000000006935 -0.5 0  0.2400000000007212 -0.5 0  0.230000000000749 -0.5 0  0.2200000000007767 -0.5 0  0.2100000000008044 -0.5 0  0.2000000000008322 -0.5 0  0.19000000000086 -0.5 0  0.1800000000008877 -0.5 0  0.1700000000009154 -0.5 0  0.1600000000009431 -0.5 0  0.1500000000009709 -0.5 0  0.1400000000009986 -0.5 0  0.1300000000010264 -0.5 0  0.1200000000010541 -0.5 0  0.1100000000010818 -0.5 0  0.1000000000011096 -0.5 0  0.09000000000113734 -0.5 0  0.08000000000116503 -0.5 0  0.07000000000119283 -0.5 0  0.06000000000122058 -0.5 0  0.05000000000124827 -0.5 0  0.04000000000127607 -0.5 0  0.03000000000130376 -0.5 0  0.02000000000133151 -0.5 0  0.01000000000135925 -0.5 0  1.376121439022882e-12 -0.5 0  -0.009999999998640763 -0.5 0  -0.01999999999866864 -0.5 0  -0.02999999999869629 -0.5 0  -0.03999999999872406 -0.5 0  -0.04999999999875182 -0.5 0  -0.05999999999877947 -0.5 0  -0.06999999999880724 -0.5 0  -0.079999999998835 -0.5 0  -0.08999999999886266 -0.5 0  -0.09999999999889042 -0.5 0  -0.1099999999989182 -0.5 0  -0.1199999999989459 -0.5 0  -0.1299999999989737 -0.5 0  -0.1399999999990014 -0.5 0  -0.1499999999990291 -0.5 0  -0.1599999999990568 -0.5 0  -0.1699999999990847 -0.5 0  -0.1799999999991124 -0.5 0  -0.1899999999991401 -0.5 0  -0.1999999999991678 -0.5 0  -0.2099999999991955 -0.5 0  -0.2199999999992234 -0.5 0  -0.2299999999992511 -0.5 0  -0.2399999999992788 -0.5 0  -0.2499999999993066 -0.5 0  -0.2599999999993342 -0.5 0  -0.269999999999362 -0.5 0  -0.2799999999993897 -0.5 0  -0.2899999999994175 -0.5 0  -0.2999999999994452 -0.5 0  -0.3099999999994729 -0.5 0  -0.3199999999995007 -0.5 0  -0.3299999999995284 -0.5 0  -0.3399999999995562 -0.5 0  -0.3499999999995839 -0.5 0  -0.3599999999996116 -0.5 0  -0.3699999999996393 -0.5 0  -0.379999999999667 -0.5 0  -0.3899999999996949 -0.5 0  -0.3999999999997226 -0.5 0  -0.4099999999997503 -0.5 0  -0.419999999999778 -0.5 0  -0.4299999999998058 -0.5 0  -0.4399999999998336 -0.5 0  -0.4499999999998613 -0.5 0  -0.4599999999998891 -0.5 0  -0.4699999999999167 -0.5 0  -0.4799999999999445 -0.5 0  -0.4899999999999722 -0.5 0  -0.5 -0.4900000000000277 0  -0.5 -0.4800000000000555 0  -0.5 -0.4700000000000832 0  -0.5 -0.4600000000001109 0  -0.5 -0.4500000000001387 0  -0.5 -0.4400000000001664 0  -0.5 -0.4300000000001942 0  -0.5 -0.4200000000002219 0  -0.5 -0.4100000000002497 0  -0.5 -0.4000000000002774 0  -0.5 -0.3900000000003052 0  -0.5 -0.3800000000003328 0  -0.5 -0.3700000000003606 0  -0.5 -0.3600000000003883 0  -0.5 -0.3500000000004161 0  -0.5 -0.3400000000004438 0  -0.5 -0.3300000000004716 0  -0.5 -0.3200000000004993 0  -0.5 -0.3100000000005271 0  -0.5 -0.3000000000005548 0  -0.5 -0.2900000000005825 0  -0.5 -0.2800000000006103 0  -0.5 -0.2700000000006381 0  -0.5 -0.2600000000006658 0  -0.5 -0.2500000000006935 0  -0.5 -0.2400000000007212 0  -0.5 -0.230000000000749 0  -0.5 -0.2200000000007767 0  -0.5 -0.2100000000008044 0  -0.5 -0.2000000000008322 0  -0.5 -0.19000000000086 0  -0.5 -0.1800000000008877 0  -0.5 -0.1700000000009154 0  -0.5 -0.1600000000009431 0  -0.5 -0.1500000000009709 0  -0.5 -0.1400000000009986 0  -0.5 -0.1300000000010264 0  -0.5 -0.1200000000010541 0  -0.5 -0.1100000000010818 0  -0.5 -0.1000000000011096 0  -0.5 -0.09000000000113734 0  -0.5 -0.08000000000116503 0  -0.5 -0.07000000000119283 0  -0.5 -0.06000000000122058 0  -0.5 -0.05000000000124827 0  -0.5 -0.04000000000127607 0  -0.5 -0.03000000000130376 0  -0.5 -0.02000000000133151 0  -0.5 -0.01000000000135925 0  -0.5 -1.376121439022882e-12 0  -0.5 0.009999999998640763 0  -0.5 0.01999999999866864 0  -0.5 0.02999999999869629 0  -0.5 0.03999999999872406 0  -0.5 0.04999999999875182 0  -0.5 0.05999999999877947 0  -0.5 0.06999999999880724 0  -0.5 0.079999999998835 0  -0.5 0.08999999999886266 0  -0.5 0.09999999999889042
[...]
<PointData  Vectors="f_27-0"> 
<DataArray  type="Float64"  Name="f_27-0"  NumberOfComponents="3" format="ascii">1.9987145151854871e-03 5.0808686829014058e-02 0.0000000000000000e+00  -2.7394155935331569e-03 5.0357819714022992e-02 0.0000000000000000e+00  -7.0113998516177826e-04 3.6698273052582928e-02 0.0000000000000000e+00  7.7975866125541151e-04 3.6589560078804512e-02 0.0000000000000000e+00  -1.8884116399124082e-03 6.6958425322701286e-03 0.0000000000000000e+00  1.9564387862298412e-03 6.5963206761315328e-03 0.0000000000000000e+00  -8.0848319028588322e-04 6.1946692630598351e-03 0.0000000000000000e+00  8.1312260862672313e-04 6.2297035590098493e-03 0.0000000000000000e+00  3.3674968147672569e-03 5.0005112172431490e-02 0.0000000000000000e+00  4.6871379925155533e-03 4.9113000232102355e-02 0.0000000000000000e+00  5.9501178660529199e-03 4.8138565410473379e-02 0.0000000000000000e+00  7.1526974936226154e-03 4.7086836010822704e-02 0.0000000000000000e+00  8.2880971014904405e-03 4.5965591797133276e-02 0.0000000000000000e+00  9.3540604931506167e-03 4.4779787454781415e-02 0.0000000000000000e+00  1.0345066906715132e-02 4.3539369390461026e-02 0.0000000000000000e+00  1.1260276284126363e-02 4.2249267388146911e-02 0.0000000000000000e+00  1.2096815263532894e-02 4.0917640593074622e-02 0.0000000000000000e+00  1.2851776291619431e-02 3.9553481267260271e-02 0.0000000000000000e+00  1.3526487329166413e-02 3.8163474810479242e-02 0.0000000000000000e+00  1.4120260245609849e-02 3.6753632523569647e-02 0.0000000000000000e+00  1.4633444468407484e-02 3.5332030758964864e-02 0.0000000000000000e+00  1.5067916655545655e-02 3.3903804602962308e-02 0.0000000000000000e+00  1.5423267557045185e-02 3.2478479152812448e-02 0.0000000000000000e+00  1.5703340073034960e-02 3.1059352922463333e-02 0.0000000000000000e+00  1.5909788595542377e-02 2.9652021436830128e-02 0.0000000000000000e+00  1.6044635410548121e-02 2.8263045912519290e-02 0.0000000000000000e+00  1.6111514206881859e-02 2.6896931098315181e-02 0.0000000000000000e+00  1.6113425426531960e-02 2.5556360503635269e-02 0.0000000000000000e+00  1.6053018524371097e-02 2.4246274126920295e-02 0.0000000000000000e+00  1.5934172061558227e-02 2.2969084596111706e-02 0.0000000000000000e+00  1.5760065691288159e-02 2.1727597716228647e-02 0.0000000000000000e+00  1.5533690152837577e-02 2.0526661073672368e-02 0.0000000000000000e+00  1.5258604588445994e-02 1.9366025160961666e-02 0.0000000000000000e+00  1.4938445767544113e-02 1.8248126506232885e-02 0.0000000000000000e+00  1.4575893747369747e-02 1.7174241940966901e-02 0.0000000000000000e+00  1.4174297024266289e-02 1.6146782453269806e-02 0.0000000000000000e+00  1.3736819031262360e-02 1.5164436190284285e-02 0.0000000000000000e+00  1.3266427894180512e-02 1.4229048563001596e-02 0.0000000000000000e+00  1.2765530937079571e-02 1.3341303251818874e-02 0.0000000000000000e+00  1.2236902851769312e-02 1.2501304037251026e-02 0.0000000000000000e+00  1.1683156569597187e-02 1.1709539206626119e-02 0.0000000000000000e+00  1.1106688368277757e-02 1.0965083213439331e-02 0.0000000000000000e+00  1.0509382121024596e-02 1.0268114373556023e-02 0.0000000000000000e+00  9.8934552055417388e-03 9.6180726069235757e-03 0.0000000000000000e+00  9.2610517524379793e-03 9.0155587360064467e-03 0.0000000000000000e+00  8.6136356788440709e-03 8.4595353794323699e-03 0.0000000000000000e+00  7.9530584211157402e-03 7.9493697385154185e-03 0.0000000000000000e+00  7.2808552960158144e-03 7.4857863611032995e-03 0.0000000000000000e+00  6.5984974439132552e-03 7.0672236964767886e-03 0.0000000000000000e+00  5.9073801583154053e-03 6.6927452387091748e-03 0.0000000000000000e+00  5.2085258906410976e-03 6.3639364814968864e-03 0.0000000000000000e+00  4.5032810428900019e-03 6.0789963475403183e-03 0.0000000000000000e+00  3.7926786207548818e-03 5.8378848657888961e-03 0.0000000000000000e+00  3.0775006789542777e-03 5.6399838335004070e-03 0.0000000000000000e+00  2.3593639227144914e-03 5.4859004938578957e-03 0.0000000000000000e+00  1.6384391924181068e-03 5.3743205667225527e-03 0.0000000000000000e+00  9.1632053481631329e-04 5.3050561661643373e-03 0.0000000000000000e+00  1.9328698246095111e-04 5.2789945881973740e-03 0.0000000000000000e+00  -5.2951188560193389e-04 5.2956410118993481e-03 0.0000000000000000e+00  -1.2510959591489693e-03 5.3540952557665448e-03 0.0000000000000000e+00  -1.9709630326531810e-03 5.4549501709249123e-03 0.0000000000000000e+00  -2.6878868446218954e-03 5.5987836233056263e-03 0.0000000000000000e+00  -3.4012293470165635e-03 5.7858685009591461e-03 0.0000000000000000e+00  -4.1097403191460756e-03 6.0158776752939399e-03 0.0000000000000000e+00  -4.8127310955996998e-03 6.2893056745947215e-03 0.0000000000000000e+00  -5.5089581990769958e-03 6.6059505962683396e-03 0.0000000000000000e+00  -6.1975638675577675e-03 6.9665879028931472e-03 0.0000000000000000e+00  -6.8772638944011224e-03 7.3709576475140459e-03 0.0000000000000000e+00  -7.5465557695233339e-03 7.8207316014686605e-03 0.0000000000000000e+00  -8.2046620407629049e-03 8.3149178238385857e-03 0.0000000000000000e+00  -8.8494097195137896e-03 8.8543352120172229e-03 0.0000000000000000e+00  -9.4797007638924916e-03 9.4394072392588752e-03 0.0000000000000000e+00  -1.0093873101239055e-02 1.0070059941188717e-02 0.0000000000000000e+00  -1.0689703931609186e-02 1.0746693676882069e-02 0.0000000000000000e+00  -1.1266100523380385e-02 1.1470084296494071e-02 0.0000000000000000e+00  -1.1819841155673978e-02 1.2240192497439980e-02 0.0000000000000000e+00  -1.2350140744422837e-02 1.3056694888633329e-02 0.0000000000000000e+00  -1.2853368393579551e-02 1.3919600041819167e-02 0.0000000000000000e+00  -1.3327986605873090e-02 1.4829540873534754e-02 0.0000000000000000e+00  -1.3771282590338850e-02 1.5784047652618462e-02 0.0000000000000000e+00  -1.4180296551604634e-02 1.6783462652978698e-02 0.0000000000000000e+00  -1.4552745835905776e-02 1.7828086483387736e-02 0.0000000000000000e+00  -1.4884939203023289e-02 1.8915923614676734e-02 0.0000000000000000e+00  -1.5174949010683478e-02 2.0045864708076323e-02 0.0000000000000000e+00  -1.5418478809933625e-02 2.1217285843589818e-02 0.0000000000000000e+00  -1.5613396167960918e-02 2.2425748703282001e-02 0.0000000000000000e+00  -1.5756177949314120e-02 2.3671408387032831e-02 0.0000000000000000e+00  -1.5843480165026628e-02 2.4951169205891854e-02 0.0000000000000000e+00  -1.5872530458032042e-02 2.6261852001853780e-02 0.0000000000000000e+00  -1.5839718904613505e-02 2.7599807873953754e-02 0.0000000000000000e+00  -1.5742910758508824e-02 2.8962004703222483e-02 0.0000000000000000e+00  -1.5577861374556176e-02 3.0344740975656599e-02 0.0000000000000000e+00  -1.5343411767808976e-02 3.1741367916206367e-02 0.0000000000000000e+00  -1.5036403580748084e-02 3.3148374323805893e-02 0.0000000000000000e+00  -1.4654432438764308e-02 3.4561309647559081e-02 0.0000000000000000e+00  -1.4195914729415266e-02 3.5972622898599191e-02 0.0000000000000000e+00  -1.3659700596490819e-02 3.7376470319597489e-02 0.0000000000000000e+00  -1.3044496950953421e-02 3.8766085635260829e-02 0.0000000000000000e+00  -1.2350349264665028e-02 4.0135485369580268e-02 0.0000000000000000e+00  -1.1575692529913178e-02 4.1478466090777183e-02 0.0000000000000000e+00  -1.0722887799254285e-02 4.2786140772615791e-02 0.0000000000000000e+00  -9.7925721188953201e-03 4.4051324078468873e-02 0.0000000000000000e+00  -8.7858074498443940e-03 4.5268416748348306e-02 0.0000000000000000e+00  -7.7075554686385798e-03 4.6427009962544577e-02 0.0000000000000000e+00  -6.5584923485580487e-03 4.7522813030129112e-02 0.0000000000000000e+00  -5.3441432604747893e-03 4.8547570325382608e-02 0.0000000000000000e+00  -4.0693988426720520e-03 4.9494510680027214e-02 0.0000000000000000e+00  -3.1011352854617702e-03 5.1750071265542034e-02 0.0000000000000000e+00  -3.4911849131040108e-03 5.3215721212826840e-02 0.0000000000000000e+00  -3.9097767952120189e-03 5.4762606948086004e-02 0.0000000000000000e+00  -4.3609920706034321e-03 5.6393124915548341e-02 0.0000000000000000e+00  -4.8464193763701037e-03 5.8115601383876433e-02 0.0000000000000000e+00  -5.3725768986052939e-03 5.9933871320245864e-02 0.0000000000000000e+00  -5.9373938768992789e-03 6.1855168528168657e-02 0.0000000000000000e+00  -6.5514768217073260e-03 6.3886867005990153e-02 0.0000000000000000e+00  -7.2183524925567817e-03 6.6034195962528922e-02 0.0000000000000000e+00  -7.9402924446666402e-03 6.8306418266102079e-02 0.0000000000000000e+00  -8.7268212651476721e-03 7.0709480206964354e-02 0.0000000000000000e+00  -9.5874756034857230e-03 7.3248280609742228e-02 0.0000000000000000e+00  -1.0528897524208387e-02 7.5930645515707121e-02 0.0000000000000000e+00  -1.1562593792056080e-02 7.8754869504382416e-02 0.0000000000000000e+00  -1.2694276792109657e-02 8.1725749374073703e-02 0.0000000000000000e+00  -1.3930532711031313e-02 8.4840145784658941e-02 0.0000000000000000e+00  -1.5276751793960744e-02 8.8082145868923448e-02 0.0000000000000000e+00  -1.6716528510945506e-02 9.1441857157481182e-02 0.0000000000000000e+00  -1.8215031911699819e-02 9.4881259217174982e-02 0.0000000000000000e+00  -1.9697863051430353e-02 9.8355969666072601e-02 0.0000000000000000e+00  -2.1018535236274168e-02 1.0181119007116866e-01 0.0000000000000000e+00  -2.1941916854110653e-02 1.0516449935405590e-01 0.0000000000000000e+00  -2.2090589842375656e-02 1.0834088728494627e-01 0.0000000000000000e+00  -2.0963559325814719e-02 1.1125398122280526e-01 0.0000000000000000e+00  -1.7935573419709444e-02 1.1383536609358964e-01 0.0000000000000000e+00  -1.2343035205913903e-02 1.1607510378824437e-01 0.0000000000000000e+00  -3.7770827999586533e-03 1.1797387247834933e-01 0.0000000000000000e+00  7.7611842522496899e-03 1.1956871528273190e-01 0.0000000000000000e+00  2.1519552865011945e-02 1.2087001861183151e-01 0.0000000000000000e+00  3.6116106270802535e-02 1.2169976789111987e-01 0.0000000000000000e+00  4.9424737397118751e-02 1.2180829257849017e-01 0.0000000000000000e+00  5.8848605039605151e-02 1.2071719138712447e-01 0.0000000000000000e+00  6.1338042804268855e-02 1.1819862129121533e-01 0.0000000000000000e+00  5.3536199789256375e-02 1.1445196394467431e-01 0.0000000000000000e+00  3.3926800250952988e-02 1.1056009593586727e-01 0.0000000000000000e+00  4.9269030592785949e-03 1.0889466921332529e-01 0.0000000000000000e+00  -2.5121102092460924e-02 1.1164750006280795e-01 0.0000000000000000e+00  -4.5811157458228217e-02 1.2012658912765958e-01 0.0000000000000000e+00  -5.1895555949462630e-02 1.3285292779511262e-01 0.0000000000000000e+00  -4.7905307756210595e-02 1.4607236048300432e-01 0.0000000000000000e+00  -4.1305517000515539e-02 1.5696761747249444e-01 0.0000000000000000e+00  -3.5296321566790023e-02 1.6491723234439595e-01 0.0000000000000000e+00  -3.0037498434844299e-02 1.7029571870431093e-01 0.0000000000000000e+00  -2.5305706390186627e-02 1.7367042943853273e-01 0.0000000000000000e+00  -2.1000856884217888e-02 1.7541233008109228e-01 0.0000000000000000e+00  -1.7043784563276813e-02 1.7584513328911747e-01 0.0000000000000000e+00  -1.3382086024974010e-02 1.7517490862529719e-01 0.0000000000000000e+00  -1.0061289445047760e-02 1.7359686639900196e-01 0.0000000000000000e+00  -7.0225193304277013e-03 1.7127974359988593e-01 0.0000000000000000e+00  -4.2748500909209628e-03 1.6834929396291803e-01 0.0000000000000000e+00  -1.8183659990836194e-03 1.6490834786424113e-01 0.0000000000000000e+00  3.3665734697923183e-04 1.6107843741789754e-01 0.0000000000000000e+00  2.2115071555264239e-03 1.5694828121077864e-01 0.0000000000000000e+00  3.8318266526573930e-03 1.5259104387167943e-01 0.0000000000000000e+00  5.1902692265189338e-03 1.4807791771189760e-01 0.0000000000000000e+00  6.3168213454106795e-03 1.4346902577747173e-01 0.0000000000000000e+00  7.2213869296171495e-03 1.3882014794025777e-01 0.0000000000000000e+00  7.9191860134482563e-03 1.3418084176785383e-01 0.0000000000000000e+00  8.4414434203641097e-03 1.2957807369536026e-01 0.0000000000000000e+00  8.8018019620169970e-03 1.2505061171419490e-01 0.0000000000000000e+00  9.0275662111046900e-03 1.2061432276429865e-01 0.0000000000000000e+00  9.1309451183283312e-03 1.1629571722417407e-01 0.0000000000000000e+00  9.1333443191227853e-03 1.1210558087276555e-01 0.0000000000000000e+00  9.0486957813606193e-03 1.0805485153088010e-01 0.0000000000000000e+00  8.8923340269609664e-03 1.0415045853624909e-01 0.0000000000000000e+00  8.6781640639786595e-03 1.0039362290788634e-01 0.0000000000000000e+00  8.4179137802908692e-03 9.6791619162490711e-02 0.0000000000000000e+00  8.1234564652229724e-03 9.3334215147664754e-02 0.0000000000000000e+00  7.8003988324292367e-03 9.0030514041700191e-02 0.0000000000000000e+00  7.4578119370167506e-03 8.6867953715544136e-02 0.0000000000000000e+00  7.1002518766188575e-03 8.3848153950395340e-02 0.0000000000000000e+00  6.7303591261922355e-03 8.0965843858941677e-02 0.0000000000000000e+00  6.3544227015727393e-03 7.8217280556437063e-02 0.0000000000000000e+00  5.9783546060663863e-03 7.5593958346023782e-02 0.0000000000000000e+00  5.6038610046371699e-03 7.3090396863166943e-02 0.0000000000000000e+00  5.2314102333899841e-03 7.0705455094316583e-02 0.0000000000000000e+00  4.8668291109071988e-03 6.8428186180648970e-02 0.0000000000000000e+00  4.5054418427308510e-03 6.6257586441887617e-02 0.0000000000000000e+00  4.1536269510671344e-03 6.4185734056827606e-02 0.0000000000000000e+00  3.8113887479225830e-03 6.2209434769352707e-02 0.0000000000000000e+00  3.4784109150222601e-03 6.0323486901410511e-02 0.0000000000000000e+00  3.1557589212709864e-03 5.8522310086536800e-02 0.0000000000000000e+00  2.8443469623833919e-03 5.6803320372892069e-02 0.0000000000000000e+00  2.5447087333007627e-03 5.5159902802809753e-02 0.0000000000000000e+00  2.2554317673009906e-03 5.3590661439360483e-02 0.0000000000000000e+00  1.9782924981802119e-03 5.2089631288693337e-02 0.0000000000000000e+00  1.7137340468187728e-03 5.0654964009815784e-02 0.0000000000000000e+00  1.4603093910366962e-03 4.9282195870037224e-02 0.0000000000000000e+00  1.2187034563502302e-03 4.7969210930293014e-02 0.0000000000000000e+00  9.8818231577284493e-04 4.6712061823984283e-02 0.0000000000000000e+00  7.6974492566607607e-04 4.5508894184259803e-02 0.0000000000000000e+00  5.6316614979909699e-04 4.4356014777011600e-02 0.0000000000000000e+00  3.6750143481214858e-04 4.3251904607611073e-02 0.0000000000000000e+00  1.8265439234125440e-04 4.2193554374535334e-02 0.0000000000000000e+00  9.7032781602625627e-06 4.1178784752172251e-02 0.0000000000000000e+00  -1.5303507024875569e-04 4.0206414212429493e-02 0.0000000000000000e+00  -3.0493069892609221e-04 3.9273630577908364e-02 0.0000000000000000e+00  -4.4617846350703520e-04 3.8379125407859295e-02 0.0000000000000000e+00  -5.7821604536519695e-04 3.7521250098947939e-02 0.0000000000000000e+00  9.4002905387833498e-05 3.6231862630082427e-02 0.0000000000000000e+00  8.6496735075624297e-04 3.5721646427283545e-02 0.0000000000000000e+00  1.6100875376588390e-03 3.5169172583576054e-02 0.0000000000000000e+00  2.3264347055032188e-03 3.4577101201488498e-02 0.0000000000000000e+00  3.0125567208141905e-03 3.3947368416103352e-02 0.0000000000000000e+00  3.6659141518002956e-03 3.3283257033711704e-02 0.0000000000000000e+00  4.2854719985161117e-03 3.2586539093537488e-02 0.0000000000000000e+00  4.8689734567258988e-03 3.1860597051649883e-02 0.0000000000000000e+00  5.4153236846055932e-03 3.1108258846189726e-02 0.0000000000000000e+00  5.9239375079564718e-03 3.0332225644318769e-02 0.0000000000000000e+00  6.3932751308678586e-03 2.9535583620267279e-02 0.0000000000000000e+00  6.8226843100460764e-03 2.8721888426032481e-02 0.0000000000000000e+00  7.2117022499444631e-03 2.7893717919296245e-02 0.0000000000000000e+00  7.5596061716839942e-03 2.7054921743940998e-02 0.0000000000000000e+00  7.8670589383440983e-03 2.6207426324808752e-02 0.0000000000000000e+00  8.1334031422404165e-03 2.5355097730479018e-02 0.0000000000000000e+00  8.3590137054469250e-03 2.4501018569358650e-02 0.0000000000000000e+00  8.5444702387762108e-03 2.3647639918365267e-02 0.0000000000000000e+00  8.6902486338862276e-03 2.2797596314645546e-02 0.0000000000000000e+00  8.7967555186749917e-03 2.1954316465928880e-02 0.0000000000000000e+00  8.8651360228492616e-03 2.1119761711475928e-02 0.0000000000000000e+00  8.8961254676568555e-03 2.0296798900738579e-02 0.0000000000000000e+00  8.8907052872988779e-03 1.9487768391854794e-02 0.0000000000000000e+00  8.8505045892691737e-03 1.8694069560211711e-02 0.0000000000000000e+00  8.7763474063883174e-03 1.7918300970082662e-02 0.0000000000000000e+00  8.6695325290570870e-03 1.7162236861536336e-02 0.0000000000000000e+00  8.5315740947410137e-03 1.6427722749190594e-02 0.0000000000000000e+00  8.3639685300027303e-03 1.5715843654072102e-02 0.0000000000000000e+00  8.1679045542738093e-03 1.5028996844546819e-02 0.0000000000000000e+00  7.9447567266992102e-03 1.4367894018062556e-02 0.0000000000000000e+00  7.6962921253768491e-03 1.3733798273357151e-02 0.0000000000000000e+00  7.4237818891078073e-03 1.3127656851885078e-02 0.0000000000000000e+00  7.1288832388877984e-03 1.2550231479891268e-02 0.0000000000000000e+00  6.8128065546287251e-03 1.2002911002133992e-02 0.0000000000000000e+00  6.4771853290031588e-03 1.1486156430690871e-02 0.0000000000000000e+00  6.1234327341931497e-03 1.1000959146994593e-02 0.0000000000000000e+00  5.7527602615781385e-03 1.0547091905239763e-02 0.0000000000000000e+00  5.3668023164848153e-03 1.0125772761420819e-02 0.0000000000000000e+00  4.9666248755747960e-03 9.7371495819705122e-03 0.0000000000000000e+00  4.5538639535257931e-03 9.3812145167519057e-03 0.0000000000000000e+00  4.1295632894418647e-03 9.0588545601545355e-03 0.0000000000000000e+00  3.6949149755330368e-03 8.7706430621274020e-03 0.0000000000000000e+00  3.2514173906287511e-03 8.5156584378294608e-03 0.0000000000000000e+00  2.8000403387439094e-03 8.2947145626476870e-03 0.0000000000000000e+00  2.3420595249804619e-03 8.1077800560417565e-03 0.0000000000000000e+00  1.8787108164247503e-03 7.9550535360775228e-03 0.0000000000000000e+00  1.4109013458950849e-03 7.8361824163693666e-03 0.0000000000000000e+00  9.4013942490656793e-04 7.7519093290391652e-03 0.0000000000000000e+00  4.6709866073070202e-04 7.7022069615932751e-03 0.0000000000000000e+00  -6.7294652174737066e-06 7.6864751999146863e-03 0.0000000000000000e+00  -4.8043301088323035e-04 7.7050373768125287e-03 0.0000000000000000e+00  -9.5297649772382344e-04 7.7583026315650120e-03 0.0000000000000000e+00  -1.4230380531688657e-03 7.8459697517956513e-03 0.0000000000000000e+00  -1.8896679660297400e-03 7.9676422999924584e-03 0.0000000000000000e+00  -2.3516468664826762e-03 8.1232686335430265e-03 0.0000000000000000e+00  -2.8080458446116036e-03 8.3130364027046884e-03 0.0000000000000000e+00  -3.2574437599539171e-03 8.5366523200890079e-03 0.0000000000000000e+00  -3.6988674306568424e-03 8.7943456283648344e-03 0.0000000000000000e+00  -4.1309977939098059e-03 9.0855202176750929e-03 0.0000000000000000e+00  -4.5525722577170503e-03 9.4103909806350881e-03 0.0000000000000000e+00  -4.9626269161546855e-03 9.7678960222713843e-03 0.0000000000000000e+00  -5.3594735374668748e-03 1.0158555422553478e-02 0.0000000000000000e+00  -5.7421937980059682e-03 1.0581630475868492e-02 0.0000000000000000e+00  -6.1092326852808885e-03 1.1036763066090903e-02 0.0000000000000000e+00  -6.4592051429268162e-03 1.1523465843232661e-02 0.0000000000000000e+00  -6.7908672369158575e-03 1.2041212086717896e-02 0.0000000000000000e+00  -7.1026409250644108e-03 1.2589162643180121e-02 0.0000000000000000e+00  -7.3935136355503086e-03 1.3166303704305689e-02 0.0000000000000000e+00  -7.6613865144685043e-03 1.3772399588747592e-02 0.0000000000000000e+00  -7.9055022857990563e-03 1.4406051956467627e-02 0.0000000000000000e+00  -8.1240385997151093e-03 1.5066111788698777e-02 0.0000000000000000e+00  -8.3154908677049513e-03 1.5752136697839477e-02 0.0000000000000000e+00  -8.4785526556286975e-03 1.6462625147324307e-02 0.0000000000000000e+00  -8.6118875299365082e-03 1.7195238107441335e-02 0.0000000000000000e+00  -8.7142636136938786e-03 1.7949037435702964e-02 0.0000000000000000e+00  -8.7837576462952011e-03 1.8722088180371861e-02 0.0000000000000000e+00  -8.8200996727699488e-0