<?xml version="1.0"?>
<VTKFile type="UnstructuredGrid"  version="0.1"  >
<UnstructuredGrid>
<Piece  NumberOfPoints="16275" NumberOfCells="32468">
<Points>
<DataArray  type="Float64"  NumberOfComponents="3"  format="ascii">-0.5 0.5 0  0.5 0.5 0  0.5 -0.5 0  -0.5 -0.5 0  -1 1 0  1 1 0  1 -1 0  -1 -1 0  -0.4900000000000277 0.5 0  -0.4800000000000555 0.5 0  -0.4700000000000832 0.5 0  -0.4600000000001109 0.5 0  -0.4500000000001387 0.5 0  -0.4400000000001664 0.5 0  -0.4300000000001942 0.5 0  -0.4200000000002219 0.5 0  -0.4100000000002497 0.5 0  -0.4000000000002774 0.5 0  -0.3900000000003052 0.5 0  -0.3800000000003328 0.5 0  -0.3700000000003606 0.5 0  -0.3600000000003883 0.5 0  -0.3500000000004161 0.5 0  -0.3400000000004438 0.5 0  -0.3300000000004716 0.5 0  -0.3200000000004993 0.5 0  -0.3100000000005271 0.5 0  -0.3000000000005548 0.5 0  -0.2900000000005825 0.5 0  -0.2800000000006103 0.5 0  -0.2700000000006381 0.5 0  -0.2600000000006658 0.5 0  -0.2500000000006935 0.5 0  -0.2400000000007212 0.5 0  -0.230000000000749 0.5 0  -0.2200000000007767 0.5 0  -0.2100000000008044 0.5 0  -0.2000000000008322 0.5 0  -0.19000000000086 0.5 0  -0.1800000000008877 0.5 0  -0.1700000000009154 0.5 0  -0.1600000000009431 0.5 0  -0.1500000000009709 0.5 0  -0.1400000000009986 0.5 0  -0.1300000000010264 0.5 0  -0.1200000000010541 0.5 0  -0.1100000000010818 0.5 0  -0.1000000000011096 0.5 0  -0.09000000000113734 0.5 0  -0.08000000000116503 0.5 0  -0.07000000000119283 0.5 0  -0.06000000000122058 0.5 0  -0.05000000000124827 0.5 0  -0.04000000000127607 0.5 0  -0.03000000000130376 0.5 0  -0.02000000000133151 0.5 0  -0.01000000000135925 0.5 0  -1.376121439022882e-12 0.5 0  0.009999999998640763 0.5 0  0.01999999999866864 0.5 0  0.02999999999869629 0.5 0  0.03999999999872406 0.5 0  0.04999999999875182 0.5 0  0.05999999999877947 0.5 0  0.06999999999880724 0.5 0  0.079999999998835 0.5 0  0.08999999999886266 0.5 0  0.09999999999889042 0.5 0  0.1099999999989182 0.5 0  0.1199999999989459 0.5 0  0.1299999999989737 0.5 0  0.1399999999990014 0.5 0  0.1499999999990291 0.5 0  0.1599999999990568 0.5 0  0.1699999999990847 0.5 0  0.1799999999991124 0.5 0  0.1899999999991401 0.5 0  0.1999999999991678 0.5 0  0.2099999999991955 0.5 0  0.2199999999992234 0.5 0  0.2299999999992511 0.5 0  0.2399999999992788 0.5 0  0.2499999999993066 0.5 0  0.2599999999993342 0.5 0  0.269999999999362 0.5 0  0.2799999999993897 0.5 0  0.2899999999994175 0.5 0  0.2999999999994452 0.5 0  0.3099999999994729 0.5 0  0.3199999999995007 0.5 0  0.3299999999995284 0.5 0  0.3399999999995562 0.5 0  0.3499999999995839 0.5 0  0.3599999999996116 0.5 0  0.3699999999996393 0.5 0  0.379999999999667 0.5 0  0.3899999999996949 0.5 0  0.3999999999997226 0.5 0  0.4099999999997503 0.5 0  0.419999999999778 0.5 0  0.4299999999998058 0.5 0  0.4399999999998336 0.5 0  0.4499999999998613 0.5 0  0.4599999999998891 0.5 0  0.4699999999999167 0.5 0  0.4799999999999445 0.5 0  0.4899999999999722 0.5 0  0.5 0.4900000000000277 0  0.5 0.4800000000000555 0  0.5 0.4700000000000832 0  0.5 0.4600000000001109 0  0.5 0.4500000000001387 0  0.5 0.4400000000001664 0  0.5 0.4300000000001942 0  0.5 0.4200000000002219 0  0.5 0.4100000000002497 0  0.5 0.4000000000002774 0  0.5 0.3900000000003052 0  0.5 0.3800000000003328 0  0.5 0.3700000000003606 0  0.5 0.3600000000003883 0  0.5 0.3500000000004161 0  0.5 0.3400000000004438 0  0.5 0.3300000000004716 0  0.5 0.3200000000004993 0  0.5 0.3100000000005271 0  0.5 0.3000000000005548 0  0.5 0.2900000000005825 0  0.5 0.2800000000006103 0  0.5 0.2700000000006381 0  0.5 0.2600000000006658 0  0.5 0.2500000000006935 0  0.5 0.2400000000007212 0  0.5 0.230000000000749 0  0.5 0.2200000000007767 0  0.5 0.2100000000008044 0  0.5 0.2000000000008322 0  0.5 0.19000000000086 0  0.5 0.1800000000008877 0  0.5 0.1700000000009154 0  0.5 0.1600000000009431 0  0.5 0.1500000000009709 0  0.5 0.1400000000009986 0  0.5 0.1300000000010264 0  0.5 0.1200000000010541 0  0.5 0.1100000000010818 0  0.5 0.1000000000011096 0  0.5 0.09000000000113734 0  0.5 0.08000000000116503 0  0.5 0.07000000000119283 0  0.5 0.06000000000122058 0  0.5 0.05000000000124827 0  0.5 0.04000000000127607 0  0.5 0.03000000000130376 0  0.5 0.02000000000133151 0  0.5 0.01000000000135925 0  0.5 1.376121439022882e-12 0  0.5 -0.009999999998640763 0  0.5 -0.01999999999866864 0  0.5 -0.02999999999869629 0  0.5 -0.03999999999872406 0  0.5 -0.04999999999875182 0  0.5 -0.05999999999877947 0  0.5 -0.06999999999880724 0  0.5 -0.079999999998835 0  0.5 -0.08999999999886266 0  0.5 -0.09999999999889042 0  0.5 -0.1099999999989182 0  0.5 -0.1199999999989459 0  0.5 -0.1299999999989737 0  0.5 -0.1399999999990014 0  0.5 -0.1499999999990291 0  0.5 -0.1599999999990568 0  0.5 -0.1699999999990847 0  0.5 -0.1799999999991124 0  0.5 -0.1899999999991401 0  0.5 -0.1999999999991678 0  0.5 -0.2099999999991955 0  0.5 -0.2199999999992234 0  0.5 -0.2299999999992511 0  0.5 -0.2399999999992788 0  0.5 -0.2499999999993066 0  0.5 -0.2599999999993342 0  0.5 -0.269999999999362 0  0.5 -0.2799999999993897 0  0.5 -0.2899999999994175 0  0.5 -0.2999999999994452 0  0.5 -0.3099999999994729 0  0.5 -0.3199999999995007 0  0.5 -0.3299999999995284 0  0.5 -0.3399999999995562 0  0.5 -0.3499999999995839 0  0.5 -0.3599999999996116 0  0.5 -0.3699999999996393 0  0.5 -0.379999999999667 0  0.5 -0.3899999999996949 0  0.5 -0.3999999999997226 0  0.5 -0.4099999999997503 0  0.5 -0.419999999999778 0  0.5 -0.4299999999998058 0  0.5 -0.4399999999998336 0  0.5 -0.4499999999998613 0  0.5 -0.4599999999998891 0  0.5 -0.4699999999999167 0  0.5 -0.4799999999999445 0  0.5 -0.4899999999999722 0  0.4900000000000277 -0.5 0  0.4800000000000555 -0.5 0  0.4700000000000832 -0.5 0  0.4600000000001109 -0.5 0  0.4500000000001387 -0.5 0  0.4400000000001664 -0.5 0  0.4300000000001942 -0.5 0  0.4200000000002219 -0.5 0  0.4100000000002497 -0.5 0  0.4000000000002774 -0.5 0  0.3900000000003052 -0.5 0  0.3800000000003328 -0.5 0  0.3700000000003606 -0.5 0  0.3600000000003883 -0.5 0  0.3500000000004161 -0.5 0  0.3400000000004438 -0.5 0  0.3300000000004716 -0.5 0  0.3200000000004993 -0.5 0  0.3100000000005271 -0.5 0  0.3000000000005548 -0.5 0  0.2900000000005825 -0.5 0  0.2800000000006103 -0.5 0  0.2700000000006381 -0.5 0  0.2600000000006658 -0.5 0  0.2500000000006935 -0.5 0  0.2400000000007212 -0.5 0  0.230000000000749 -0.5 0  0.2200000000007767 -0.5 0  0.2100000000008044 -0.5 0  0.2000000000008322 -0.5 0  0.19000000000086 -0.5 0  0.1800000000008877 -0.5 0  0.1700000000009154 -0.5 0  0.1600000000009431 -0.5 0  0.1500000000009709 -0.5 0  0.1400000000009986 -0.5 0  0.1300000000010264 -0.5 0  0.1200000000010541 -0.5 0  0.1100000000010818 -0.5 0  0.1000000000011096 -0.5 0  0.09000000000113734 -0.5 0  0.08000000000116503 -0.5 0  0.07000000000119283 -0.5 0  0.06000000000122058 -0.5 0  0.05000000000124827 -0.5 0  0.04000000000127607 -0.5 0  0.03000000000130376 -0.5 0  0.02000000000133151 -0.5 0  0.01000000000135925 -0.5 0  1.376121439022882e-12 -0.5 0  -0.009999999998640763 -0.5 0  -0.01999999999866864 -0.5 0  -0.02999999999869629 -0.5 0  -0.03999999999872406 -0.5 0  -0.04999999999875182 -0.5 0  -0.05999999999877947 -0.5 0  -0.06999999999880724 -0.5 0  -0.079999999998835 -0.5 0  -0.08999999999886266 -0.5 0  -0.09999999999889042 -0.5 0  -0.1099999999989182 -0.5 0  -0.1199999999989459 -0.5 0  -0.1299999999989737 -0.5 0  -0.1399999999990014 -0.5 0  -0.1499999999990291 -0.5 0  -0.1599999999990568 -0.5 0  -0.1699999999990847 -0.5 0  -0.1799999999991124 -0.5 0  -0.1899999999991401 -0.5 0  -0.1999999999991678 -0.5 0  -0.2099999999991955 -0.5 0  -0.2199999999992234 -0.5 0  -0.2299999999992511 -0.5 0  -0.2399999999992788 -0.5 0  -0.2499999999993066 -0.5 0  -0.2599999999993342 -0.5 0  -0.269999999999362 -0.5 0  -0.2799999999993897 -0.5 0  -0.2899999999994175 -0.5 0  -0.2999999999994452 -0.5 0  -0.3099999999994729 -0.5 0  -0.3199999999995007 -0.5 0  -0.3299999999995284 -0.5 0  -0.3399999999995562 -0.5 0  -0.3499999999995839 -0.5 0  -0.3599999999996116 -0.5 0  -0.3699999999996393 -0.5 0  -0.379999999999667 -0.5 0  -0.3899999999996949 -0.5 0  -0.3999999999997226 -0.5 0  -0.4099999999997503 -0.5 0  -0.419999999999778 -0.5 0  -0.4299999999998058 -0.5 0  -0.4399999999998336 -0.5 0  -0.4499999999998613 -0.5 0  -0.4599999999998891 -0.5 0  -0.4699999999999167 -0.5 0  -0.4799999999999445 -0.5 0  -0.4899999999999722 -0.5 0  -0.5 -0.4900000000000277 0  -0.5 -0.4800000000000555 0  -0.5 -0.4700000000000832 0  -0.5 -0.4600000000001109 0  -0.5 -0.4500000000001387 0  -0.5 -0.4400000000001664 0  -0.5 -0.4300000000001942 0  -0.5 -0.4200000000002219 0  -0.5 -0.4100000000002497 0  -0.5 -0.4000000000002774 0  -0.5 -0.3900000000003052 0  -0.5 -0.3800000000003328 0  -0.5 -0.3700000000003606 0  -0.5 -0.3600000000003883 0  -0.5 -0.3500000000004161 0  -0.5 -0.3400000000004438 0  -0.5 -0.3300000000004716 0  -0.5 -0.3200000000004993 0  -0.5 -0.3100000000005271 0  -0.5 -0.3000000000005548 0  -0.5 -0.2900000000005825 0  -0.5 -0.2800000000006103 0  -0.5 -0.2700000000006381 0  -0.5 -0.2600000000006658 0  -0.5 -0.2500000000006935 0  -0.5 -0.2400000000007212 0  -0.5 -0.230000000000749 0  -0.5 -0.2200000000007767 0  -0.5 -0.2100000000008044 0  -0.5 -0.2000000000008322 0  -0.5 -0.19000000000086 0  -0.5 -0.1800000000008877 0  -0.5 -0.1700000000009154 0  -0.5 -0.1600000000009431 0  -0.5 -0.1500000000009709 0  -0.5 -0.1400000000009986 0  -0.5 -0.1300000000010264 0  -0.5 -0.1200000000010541 0  -0.5 -0.1100000000010818 0  -0.5 -0.1000000000011096 0  -0.5 -0.09000000000113734 0  -0.5 -0.08000000000116503 0  -0.5 -0.07000000000119283 0  -0.5 -0.06000000000122058 0  -0.5 -0.05000000000124827 0  -0.5 -0.04000000000127607 0  -0.5 -0.03000000000130376 0  -0.5 -0.02000000000133151 0  -0.5 -0.01000000000135925 0  -0.5 -1.376121439022882e-12 0  -0.5 0.009999999998640763 0  -0.5 0.01999999999866864 0  -0.5 0.02999999999869629 0  -0.5 0.03999999999872406 0  -0.5 0.04999999999875182 0  -0.5 0.05999999999877947 0  -0.5 0.06999999999880724 0  -0.5 0.079999999998835 0  -0.5 0.08999999999886266 0  -0.5 0.09999999999889042
[...]
<PointData  Vectors="f_27-0"> 
<DataArray  type="Float64"  Name="f_27-0"  NumberOfComponents="3" format="ascii">8.8751972215079372e-04 4.5112188198408003e-02 0.0000000000000000e+00  -1.2646158660475858e-03 4.5020014523332715e-02 0.0000000000000000e+00  1.0737310981189150e-04 4.0370217645179216e-02 0.0000000000000000e+00  6.4442159159586556e-05 4.0315032168854036e-02 0.0000000000000000e+00  -1.5237900415380752e-03 6.3706795538010837e-03 0.0000000000000000e+00  1.5000416190854757e-03 6.3562916358950276e-03 0.0000000000000000e+00  -1.1488623431956443e-03 6.3771620186765946e-03 0.0000000000000000e+00  1.1930283586794948e-03 6.3011976119770286e-03 0.0000000000000000e+00  1.9977528464841282e-03 4.4457416365435487e-02 0.0000000000000000e+00  3.0714418285197670e-03 4.3735729965015846e-02 0.0000000000000000e+00  4.1037953439458583e-03 4.2950992384240612e-02 0.0000000000000000e+00  5.0920262562928406e-03 4.2106449370156077e-02 0.0000000000000000e+00  6.0314620543876745e-03 4.1207098248540491e-02 0.0000000000000000e+00  6.9201927361222165e-03 4.0256349923367671e-02 0.0000000000000000e+00  7.7541253825233322e-03 3.9260455535740237e-02 0.0000000000000000e+00  8.5321429859576900e-03 3.8223375040746188e-02 0.0000000000000000e+00  9.2516991182016624e-03 3.7150244471964446e-02 0.0000000000000000e+00  9.9103335305809493e-03 3.6046886211979691e-02 0.0000000000000000e+00  1.0508381458319237e-02 3.4918389239916657e-02 0.0000000000000000e+00  1.1044773977017209e-02 3.3769359648475682e-02 0.0000000000000000e+00  1.1519077837810542e-02 3.2605672252986898e-02 0.0000000000000000e+00  1.1931974708428347e-02 3.1431074323652171e-02 0.0000000000000000e+00  1.2282559977554966e-02 3.0252595493990436e-02 0.0000000000000000e+00  1.2572998682018071e-02 2.9073271390965928e-02 0.0000000000000000e+00  1.2804047819993742e-02 2.7897435154505275e-02 0.0000000000000000e+00  1.2976537349412516e-02 2.6730499246063993e-02 0.0000000000000000e+00  1.3092581952372348e-02 2.5576272282024380e-02 0.0000000000000000e+00  1.3154136481235703e-02 2.4437369931837011e-02 0.0000000000000000e+00  1.3162620868612354e-02 2.3318068028925474e-02 0.0000000000000000e+00  1.3120646652917669e-02 2.2220795263186738e-02 0.0000000000000000e+00  1.3030348097370380e-02 2.1148333673237547e-02 0.0000000000000000e+00  1.2893572479036402e-02 2.0104806189560856e-02 0.0000000000000000e+00  1.2713007159158645e-02 1.9091000726764968e-02 0.0000000000000000e+00  1.2491286597181073e-02 1.8109250841791782e-02 0.0000000000000000e+00  1.2230312039981794e-02 1.7161328653448028e-02 0.0000000000000000e+00  1.1932532137068767e-02 1.6249497140170804e-02 0.0000000000000000e+00  1.1600635476729836e-02 1.5373448102701099e-02 0.0000000000000000e+00  1.1236805096087810e-02 1.4535401015382289e-02 0.0000000000000000e+00  1.0843057257369046e-02 1.3736177235843534e-02 0.0000000000000000e+00  1.0421757502220007e-02 1.2976511849069472e-02 0.0000000000000000e+00  9.9749764729417448e-03 1.2257410834738572e-02 0.0000000000000000e+00  9.5048641734935147e-03 1.1578535842110006e-02 0.0000000000000000e+00  9.0130538843462525e-03 1.0940437893536192e-02 0.0000000000000000e+00  8.5015494805597402e-03 1.0342870925404373e-02 0.0000000000000000e+00  7.9723120796482572e-03 9.7872039077908368e-03 0.0000000000000000e+00  7.4266681518587079e-03 9.2725474846183393e-03 0.0000000000000000e+00  6.8664702747408112e-03 8.7987910637018548e-03 0.0000000000000000e+00  6.2931937963071633e-03 8.3668556730967358e-03 0.0000000000000000e+00  5.7085085855597710e-03 7.9759838697440293e-03 0.0000000000000000e+00  5.1137173956153428e-03 7.6255419081882299e-03 0.0000000000000000e+00  4.5097034419394454e-03 7.3168843488142449e-03 0.0000000000000000e+00  3.8979922641086528e-03 7.0487302869743414e-03 0.0000000000000000e+00  3.2797017752813269e-03 6.8213012851944255e-03 0.0000000000000000e+00  2.6558506700198195e-03 6.6341733795193172e-03 0.0000000000000000e+00  2.0280501641405184e-03 6.4879652506996486e-03 0.0000000000000000e+00  1.3968543842875088e-03 6.3818556848171826e-03 0.0000000000000000e+00  7.6380670060895617e-04 6.3157163799672433e-03 0.0000000000000000e+00  1.2925652067594698e-04 6.2903059874542689e-03 0.0000000000000000e+00  -5.0542030821504433e-04 6.3050672467071106e-03 0.0000000000000000e+00  -1.1389700491017530e-03 6.3593246771031925e-03 0.0000000000000000e+00  -1.7707339150605747e-03 6.4537454322521285e-03 0.0000000000000000e+00  -2.3994216098558408e-03 6.5888397236693458e-03 0.0000000000000000e+00  -3.0242808724501974e-03 6.7646550596109261e-03 0.0000000000000000e+00  -3.6439314925835933e-03 6.9806632569142536e-03 0.0000000000000000e+00  -4.2574260912560946e-03 7.2372920746242384e-03 0.0000000000000000e+00  -4.8634544762020679e-03 7.5344270625901603e-03 0.0000000000000000e+00  -5.4611008499093642e-03 7.8726009315118507e-03 0.0000000000000000e+00  -6.0489581735011762e-03 8.2512006486533170e-03 0.0000000000000000e+00  -6.6254356155471530e-03 8.6715515832192173e-03 0.0000000000000000e+00  -7.1897032714291235e-03 9.1325377663886882e-03 0.0000000000000000e+00  -7.7396628597821461e-03 9.6345962784824702e-03 0.0000000000000000e+00  -8.2740660235873890e-03 1.0177834886068472e-02 0.0000000000000000e+00  -8.7913653805508987e-03 1.0762012530829271e-02 0.0000000000000000e+00  -9.2894852909198994e-03 1.1387039411690360e-02 0.0000000000000000e+00  -9.7672019124913651e-03 1.2053132655993457e-02 0.0000000000000000e+00  -1.0221707601046046e-02 1.2759949105006102e-02 0.0000000000000000e+00  -1.0652165906923361e-02 1.3506595201946022e-02 0.0000000000000000e+00  -1.1055377011845096e-02 1.4293034996067336e-02 0.0000000000000000e+00  -1.1429943077115354e-02 1.5119090064547942e-02 0.0000000000000000e+00  -1.1773713005278045e-02 1.5982127276850132e-02 0.0000000000000000e+00  -1.2084077294961136e-02 1.6881797506408797e-02 0.0000000000000000e+00  -1.2359095090254265e-02 1.7818148704832903e-02 0.0000000000000000e+00  -1.2595799356923199e-02 1.8788903087390254e-02 0.0000000000000000e+00  -1.2792909620844898e-02 1.9792347337429118e-02 0.0000000000000000e+00  -1.2946540227159799e-02 2.0827263240343764e-02 0.0000000000000000e+00  -1.3055577420153728e-02 2.1889642684923483e-02 0.0000000000000000e+00  -1.3117147141509029e-02 2.2979093957046053e-02 0.0000000000000000e+00  -1.3128945528010914e-02 2.4092197397321286e-02 0.0000000000000000e+00  -1.3089093117728804e-02 2.5225877388576668e-02 0.0000000000000000e+00  -1.2995182433811696e-02 2.6376663799819969e-02 0.0000000000000000e+00  -1.2845723320264752e-02 2.7541408479726939e-02 0.0000000000000000e+00  -1.2638193875436566e-02 2.8717041545086711e-02 0.0000000000000000e+00  -1.2372291791773465e-02 2.9897321493942839e-02 0.0000000000000000e+00  -1.2046124785895781e-02 3.1079461310388943e-02 0.0000000000000000e+00  -1.1658338836505994e-02 3.2259133477391601e-02 0.0000000000000000e+00  -1.1208702854477882e-02 3.3430730577425544e-02 0.0000000000000000e+00  -1.0696935887719406e-02 3.4589310181566316e-02 0.0000000000000000e+00  -1.0123161342950682e-02 3.5729655270283205e-02 0.0000000000000000e+00  -9.4877435853810196e-03 3.6846811898406044e-02 0.0000000000000000e+00  -8.7906628473908427e-03 3.7936354055371664e-02 0.0000000000000000e+00  -8.0342644377934744e-03 3.8991814760626700e-02 0.0000000000000000e+00  -7.2199891195010467e-03 4.0008448417959516e-02 0.0000000000000000e+00  -6.3493559525218731e-03 4.0981725216483939e-02 0.0000000000000000e+00  -5.4264463179021453e-03 4.1904848143436459e-02 0.0000000000000000e+00  -4.4523450727028020e-03 4.2775017078373445e-02 0.0000000000000000e+00  -3.4313922976925114e-03 4.3586712191477896e-02 0.0000000000000000e+00  -2.3675667983392786e-03 4.4336172164954731e-02 0.0000000000000000e+00  -1.5150906115496067e-03 4.6168517264492157e-02 0.0000000000000000e+00  -1.7832360735044234e-03 4.7372559505838498e-02 0.0000000000000000e+00  -2.0686202779432272e-03 4.8638085639652065e-02 0.0000000000000000e+00  -2.3731360242721365e-03 4.9966653617553057e-02 0.0000000000000000e+00  -2.6977017475067937e-03 5.1364456703469751e-02 0.0000000000000000e+00  -3.0452942839558294e-03 5.2833899537293727e-02 0.0000000000000000e+00  -3.4117387746787731e-03 5.4380176523427394e-02 0.0000000000000000e+00  -3.8041418291409239e-03 5.6009353335423909e-02 0.0000000000000000e+00  -4.2230395799928450e-03 5.7725626095133861e-02 0.0000000000000000e+00  -4.6668193947952061e-03 5.9536581173914215e-02 0.0000000000000000e+00  -5.1392932816791814e-03 6.1447996765990998e-02 0.0000000000000000e+00  -5.6433234942988185e-03 6.3465709615583274e-02 0.0000000000000000e+00  -6.1805791243456842e-03 6.5599404348025039e-02 0.0000000000000000e+00  -6.7554341848401573e-03 6.7853297423047146e-02 0.0000000000000000e+00  -7.3670459862230668e-03 7.0239713680536636e-02 0.0000000000000000e+00  -8.0217408532482527e-03 7.2766401486716425e-02 0.0000000000000000e+00  -8.7249179811842020e-03 7.5439111581540111e-02 0.0000000000000000e+00  -9.4748267852059406e-03 7.8272473123491670e-02 0.0000000000000000e+00  -1.0278342148529867e-02 8.1272335613161800e-02 0.0000000000000000e+00  -1.1143159751845655e-02 8.4444712697982482e-02 0.0000000000000000e+00  -1.2068114446508975e-02 8.7802558815454276e-02 0.0000000000000000e+00  -1.3058977594542213e-02 9.1347160426116805e-02 0.0000000000000000e+00  -1.4113215790585335e-02 9.5081915185932148e-02 0.0000000000000000e+00  -1.5222886203166664e-02 9.9006811089223157e-02 0.0000000000000000e+00  -1.6369890830013768e-02 1.0311909904493841e-01 0.0000000000000000e+00  -1.7536686708103547e-02 1.0739183614851942e-01 0.0000000000000000e+00  -1.8662998854640563e-02 1.1180685558227128e-01 0.0000000000000000e+00  -1.9690009432490281e-02 1.1631859013781014e-01 0.0000000000000000e+00  -2.0480138002017517e-02 1.2085892301120926e-01 0.0000000000000000e+00  -2.0889146643456785e-02 1.2535116142882330e-01 0.0000000000000000e+00  -2.0683727704983980e-02 1.2967621832644857e-01 0.0000000000000000e+00  -1.9567237627748525e-02 1.3368328260760390e-01 0.0000000000000000e+00  -1.7161907483207315e-02 1.3716582586301690e-01 0.0000000000000000e+00  -1.3022346067703094e-02 1.3990256537448004e-01 0.0000000000000000e+00  -6.6421366402260578e-03 1.4159369039864536e-01 0.0000000000000000e+00  2.4310266798485574e-03 1.4196976555537857e-01 0.0000000000000000e+00  1.4440700560022486e-02 1.4066868433888127e-01 0.0000000000000000e+00  2.9247859120974062e-02 1.3751610360192174e-01 0.0000000000000000e+00  4.5873247399590755e-02 1.3219787587253864e-01 0.0000000000000000e+00  6.2230231316904992e-02 1.2488062457341007e-01 0.0000000000000000e+00  7.5003531179622482e-02 1.1539959630270433e-01 0.0000000000000000e+00  8.0022252664997698e-02 1.0403700409710684e-01 0.0000000000000000e+00  7.2130047704265093e-02 9.1327731505768395e-02 0.0000000000000000e+00  4.8401217822505428e-02 7.8890910564404046e-02 0.0000000000000000e+00  8.8604836983874613e-03 6.9771195008807060e-02 0.0000000000000000e+00  -3.7212075910329045e-02 6.8616719250261943e-02 0.0000000000000000e+00  -7.2443770026151100e-02 7.9496553939685577e-02 0.0000000000000000e+00  -8.3560148157409364e-02 1.0039555763261175e-01 0.0000000000000000e+00  -7.3594050293703167e-02 1.2350931153321812e-01 0.0000000000000000e+00  -5.6850361941802430e-02 1.4159420760503044e-01 0.0000000000000000e+00  -4.1960438214357534e-02 1.5356015919136606e-01 0.0000000000000000e+00  -3.0002226073438439e-02 1.6093072454641755e-01 0.0000000000000000e+00  -2.0380274589047755e-02 1.6499564463066685e-01 0.0000000000000000e+00  -1.2516819788217467e-02 1.6664799230043872e-01 0.0000000000000000e+00  -6.1119478617691521e-03 1.6648081540808318e-01 0.0000000000000000e+00  -8.8137699833267023e-04 1.6491824433814237e-01 0.0000000000000000e+00  3.3201526387054044e-03 1.6230174458632371e-01 0.0000000000000000e+00  6.6409616064382693e-03 1.5887174976677929e-01 0.0000000000000000e+00  9.1992704858768620e-03 1.5485104272399652e-01 0.0000000000000000e+00  1.1105999645762582e-02 1.5040534063143046e-01 0.0000000000000000e+00  1.2461156408459649e-02 1.4567452330114630e-01 0.0000000000000000e+00  1.3356793657064771e-02 1.4077279549099037e-01 0.0000000000000000e+00  1.3875599423673736e-02 1.3579866045735475e-01 0.0000000000000000e+00  1.4091354764973257e-02 1.3082297516536884e-01 0.0000000000000000e+00  1.4067443831950244e-02 1.2590670986815336e-01 0.0000000000000000e+00  1.3859465890381419e-02 1.2108999395667537e-01 0.0000000000000000e+00  1.3512903362056065e-02 1.1641211054500761e-01 0.0000000000000000e+00  1.3072043572697348e-02 1.1188135839296399e-01 0.0000000000000000e+00  1.2561360758899768e-02 1.0753124238479408e-01 0.0000000000000000e+00  1.2008281438532676e-02 1.0335576901742081e-01 0.0000000000000000e+00  1.1426231376232006e-02 9.9367371172040780e-02 0.0000000000000000e+00  1.0828057716319738e-02 9.5566397979883089e-02 0.0000000000000000e+00  1.0225901388981400e-02 9.1953268292291945e-02 0.0000000000000000e+00  9.6316523527154793e-03 8.8516481898288091e-02 0.0000000000000000e+00  9.0496921652723165e-03 8.5250135841021438e-02 0.0000000000000000e+00  8.4791673039378273e-03 8.2156280775218485e-02 0.0000000000000000e+00  7.9291191721453016e-03 7.9216420593566456e-02 0.0000000000000000e+00  7.3912489258433790e-03 7.6431303910373546e-02 0.0000000000000000e+00  6.8748019323960786e-03 7.3787680941218972e-02 0.0000000000000000e+00  6.3782932221452156e-03 7.1281057386199151e-02 0.0000000000000000e+00  5.9004144391700958e-03 6.8903042302417700e-02 0.0000000000000000e+00  5.4422897340594282e-03 6.6644951143148778e-02 0.0000000000000000e+00  5.0037962350173203e-03 6.4502501045090602e-02 0.0000000000000000e+00  4.5847833791265403e-03 6.2465516769012373e-02 0.0000000000000000e+00  4.1823155292619778e-03 6.0531618688140734e-02 0.0000000000000000e+00  3.7989498183645630e-03 5.8691356116111933e-02 0.0000000000000000e+00  3.4347330647555860e-03 5.6941482288399466e-02 0.0000000000000000e+00  3.0872332015378346e-03 5.5275208649688705e-02 0.0000000000000000e+00  2.7562107079590085e-03 5.3689430370600998e-02 0.0000000000000000e+00  2.4405397373656063e-03 5.2177773764703339e-02 0.0000000000000000e+00  2.1417145177183008e-03 5.0737412036815796e-02 0.0000000000000000e+00  1.8594408607084361e-03 4.9362735627773852e-02 0.0000000000000000e+00  1.5921268958840637e-03 4.8051732344672096e-02 0.0000000000000000e+00  1.3390502891270598e-03 4.6800144248414555e-02 0.0000000000000000e+00  1.1009207881668675e-03 4.5604555873545415e-02 0.0000000000000000e+00  8.7544398799133539e-04 4.4462637608558266e-02 0.0000000000000000e+00  6.6352485078574922e-04 4.3370199414712277e-02 0.0000000000000000e+00  4.6560712395090416e-04 4.2325263524176773e-02 0.0000000000000000e+00  2.8033697826658965e-04 4.1326082383616410e-02 0.0000000000000000e+00  1.0282562090325432e-03 3.9815679094089972e-02 0.0000000000000000e+00  1.9193454459666454e-03 3.9208322440142399e-02 0.0000000000000000e+00  2.7784003892851791e-03 3.8550378753635671e-02 0.0000000000000000e+00  3.6018839425691405e-03 3.7845439978079716e-02 0.0000000000000000e+00  4.3879042000818571e-03 3.7095918205045972e-02 0.0000000000000000e+00  5.1334149251906777e-03 3.6306301559188202e-02 0.0000000000000000e+00  5.8369282527084600e-03 3.5478939788359490e-02 0.0000000000000000e+00  6.4960276391249254e-03 3.4618407315147641e-02 0.0000000000000000e+00  7.1090890494768201e-03 3.3728056582692255e-02 0.0000000000000000e+00  7.6757698132840241e-03 3.2810837334849734e-02 0.0000000000000000e+00  8.1942827668432389e-03 3.1871363218612322e-02 0.0000000000000000e+00  8.6639973012856784e-03 3.0914459494228014e-02 0.0000000000000000e+00  9.0843790630471700e-03 2.9942934201497060e-02 0.0000000000000000e+00  9.4548982185733745e-03 2.8961370134629745e-02 0.0000000000000000e+00  9.7767789745576358e-03 2.7972107353856617e-02 0.0000000000000000e+00  1.0049514481756502e-02 2.6980093081005921e-02 0.0000000000000000e+00  1.0273688894951364e-02 2.5988905091732760e-02 0.0000000000000000e+00  1.0450460830717549e-02 2.5001588405845793e-02 0.0000000000000000e+00  1.0580458766300661e-02 2.4021041648939163e-02 0.0000000000000000e+00  1.0664774299550478e-02 2.3051190854180604e-02 0.0000000000000000e+00  1.0704879904106802e-02 2.2094399990875264e-02 0.0000000000000000e+00  1.0701974479833136e-02 2.1153928535272516e-02 0.0000000000000000e+00  1.0657430136392075e-02 2.0232337454296159e-02 0.0000000000000000e+00  1.0573448284381677e-02 1.9330913980255340e-02 0.0000000000000000e+00  1.0451222595106868e-02 1.8452695731026834e-02 0.0000000000000000e+00  1.0292446107377836e-02 1.7599485695996290e-02 0.0000000000000000e+00  1.0099093995213068e-02 1.6773190611263561e-02 0.0000000000000000e+00  9.8729935569956632e-03 1.5974554926810217e-02 0.0000000000000000e+00  9.6158142186861927e-03 1.5206370904148907e-02 0.0000000000000000e+00  9.3292324651884778e-03 1.4469136480256807e-02 0.0000000000000000e+00  9.0153903843182871e-03 1.3763925602873043e-02 0.0000000000000000e+00  8.6758611987844281e-03 1.3091704601380880e-02 0.0000000000000000e+00  8.3124931839557766e-03 1.2453151327840403e-02 0.0000000000000000e+00  7.9267416365582950e-03 1.1849483363406198e-02 0.0000000000000000e+00  7.5204935271167761e-03 1.1280750012390310e-02 0.0000000000000000e+00  7.0954455151320695e-03 1.0748090991549088e-02 0.0000000000000000e+00  6.6527649662594729e-03 1.0251141246977799e-02 0.0000000000000000e+00  6.1943095978619304e-03 9.7906718935410735e-03 0.0000000000000000e+00  5.7212874389140122e-03 9.3666573479468281e-03 0.0000000000000000e+00  5.2356027514374485e-03 8.9790804793283326e-03 0.0000000000000000e+00  4.7383724054302651e-03 8.6289691813481260e-03 0.0000000000000000e+00  4.2308029514218507e-03 8.3167513175589243e-03 0.0000000000000000e+00  3.7142763481489809e-03 8.0409074640828433e-03 0.0000000000000000e+00  3.1898042761334313e-03 7.8023593630008907e-03 0.0000000000000000e+00  2.6587078850760799e-03 7.6009869872629161e-03 0.0000000000000000e+00  2.1223387242389679e-03 7.4368373778267143e-03 0.0000000000000000e+00  1.5815660579166708e-03 7.3094625211337352e-03 0.0000000000000000e+00  1.0380544485223090e-03 7.2197614570511659e-03 0.0000000000000000e+00  4.9235983720992383e-04 7.1678223849943202e-03 0.0000000000000000e+00  -5.4199867985214865e-05 7.1527362791092251e-03 0.0000000000000000e+00  -6.0068190445934828e-04 7.1745614810398194e-03 0.0000000000000000e+00  -1.1459239238808612e-03 7.2339791649381792e-03 0.0000000000000000e+00  -1.6884997141704940e-03 7.3309152247561698e-03 0.0000000000000000e+00  -2.2275657637674056e-03 7.4650132906350815e-03 0.0000000000000000e+00  -2.7620116819280735e-03 7.6360897496434571e-03 0.0000000000000000e+00  -3.2909669853033964e-03 7.8442276240797987e-03 0.0000000000000000e+00  -3.8127450311951552e-03 8.0892544349086409e-03 0.0000000000000000e+00  -4.3264898926227997e-03 8.3718243818300068e-03 0.0000000000000000e+00  -4.8307481067616457e-03 8.6914432300743572e-03 0.0000000000000000e+00  -5.3242368860328014e-03 9.0483584581186934e-03 0.0000000000000000e+00  -5.8058944074378992e-03 9.4413940208601353e-03 0.0000000000000000e+00  -6.2739180696244970e-03 9.8715387244564488e-03 0.0000000000000000e+00  -6.7274847969506883e-03 1.0337992460418142e-02 0.0000000000000000e+00  -7.1646998185825499e-03 1.0840530853421470e-02 0.0000000000000000e+00  -7.5840385125205577e-03 1.1379066834316760e-02 0.0000000000000000e+00  -7.9841129758432949e-03 1.1953110035378654e-02 0.0000000000000000e+00  -8.3629631646030041e-03 1.2561829757912740e-02 0.0000000000000000e+00  -8.7195795938273691e-03 1.3204396352430538e-02 0.0000000000000000e+00  -9.0514238225946498e-03 1.3880681273747253e-02 0.0000000000000000e+00  -9.3576933320496831e-03 1.4589424427970576e-02 0.0000000000000000e+00  -9.6360542633215727e-03 1.5329520639769226e-02 0.0000000000000000e+00  -9.8846322593701842e-03 1.6100839661358574e-02 0.0000000000000000e+00  -1.0101921858531865e-02 1.6901703341616961e-02 0.0000000000000000e+00  -1.0286198227095037e-02 1.7729648015967322e-02 0.0000000000000000e+00  -1.0435839978037962e-02 1.8584093460196606e-02 0.0000000000000000e+00  -1.0548399843691840e-02 1.9462889896655376e-02 0.0000000000000000e+00  -1.0623238290550051e-02