<?xml version="1.0"?>
<VTKFile type="UnstructuredGrid"  version="0.1"  >
<UnstructuredGrid>
<Piece  NumberOfPoints="16275" NumberOfCells="32468">
<Points>
<DataArray  type="Float64"  NumberOfComponents="3"  format="ascii">-0.5 0.5 0  0.5 0.5 0  0.5 -0.5 0  -0.5 -0.5 0  -1 1 0  1 1 0  1 -1 0  -1 -1 0  -0.4900000000000277 0.5 0  -0.4800000000000555 0.5 0  -0.4700000000000832 0.5 0  -0.4600000000001109 0.5 0  -0.4500000000001387 0.5 0  -0.4400000000001664 0.5 0  -0.4300000000001942 0.5 0  -0.4200000000002219 0.5 0  -0.4100000000002497 0.5 0  -0.4000000000002774 0.5 0  -0.3900000000003052 0.5 0  -0.3800000000003328 0.5 0  -0.3700000000003606 0.5 0  -0.3600000000003883 0.5 0  -0.3500000000004161 0.5 0  -0.3400000000004438 0.5 0  -0.3300000000004716 0.5 0  -0.3200000000004993 0.5 0  -0.3100000000005271 0.5 0  -0.3000000000005548 0.5 0  -0.2900000000005825 0.5 0  -0.2800000000006103 0.5 0  -0.2700000000006381 0.5 0  -0.2600000000006658 0.5 0  -0.2500000000006935 0.5 0  -0.2400000000007212 0.5 0  -0.230000000000749 0.5 0  -0.2200000000007767 0.5 0  -0.2100000000008044 0.5 0  -0.2000000000008322 0.5 0  -0.19000000000086 0.5 0  -0.1800000000008877 0.5 0  -0.1700000000009154 0.5 0  -0.1600000000009431 0.5 0  -0.1500000000009709 0.5 0  -0.1400000000009986 0.5 0  -0.1300000000010264 0.5 0  -0.1200000000010541 0.5 0  -0.1100000000010818 0.5 0  -0.1000000000011096 0.5 0  -0.09000000000113734 0.5 0  -0.08000000000116503 0.5 0  -0.07000000000119283 0.5 0  -0.06000000000122058 0.5 0  -0.05000000000124827 0.5 0  -0.04000000000127607 0.5 0  -0.03000000000130376 0.5 0  -0.02000000000133151 0.5 0  -0.01000000000135925 0.5 0  -1.376121439022882e-12 0.5 0  0.009999999998640763 0.5 0  0.01999999999866864 0.5 0  0.02999999999869629 0.5 0  0.03999999999872406 0.5 0  0.04999999999875182 0.5 0  0.05999999999877947 0.5 0  0.06999999999880724 0.5 0  0.079999999998835 0.5 0  0.08999999999886266 0.5 0  0.09999999999889042 0.5 0  0.1099999999989182 0.5 0  0.1199999999989459 0.5 0  0.1299999999989737 0.5 0  0.1399999999990014 0.5 0  0.1499999999990291 0.5 0  0.1599999999990568 0.5 0  0.1699999999990847 0.5 0  0.1799999999991124 0.5 0  0.1899999999991401 0.5 0  0.1999999999991678 0.5 0  0.2099999999991955 0.5 0  0.2199999999992234 0.5 0  0.2299999999992511 0.5 0  0.2399999999992788 0.5 0  0.2499999999993066 0.5 0  0.2599999999993342 0.5 0  0.269999999999362 0.5 0  0.2799999999993897 0.5 0  0.2899999999994175 0.5 0  0.2999999999994452 0.5 0  0.3099999999994729 0.5 0  0.3199999999995007 0.5 0  0.3299999999995284 0.5 0  0.3399999999995562 0.5 0  0.3499999999995839 0.5 0  0.3599999999996116 0.5 0  0.3699999999996393 0.5 0  0.379999999999667 0.5 0  0.3899999999996949 0.5 0  0.3999999999997226 0.5 0  0.4099999999997503 0.5 0  0.419999999999778 0.5 0  0.4299999999998058 0.5 0  0.4399999999998336 0.5 0  0.4499999999998613 0.5 0  0.4599999999998891 0.5 0  0.4699999999999167 0.5 0  0.4799999999999445 0.5 0  0.4899999999999722 0.5 0  0.5 0.4900000000000277 0  0.5 0.4800000000000555 0  0.5 0.4700000000000832 0  0.5 0.4600000000001109 0  0.5 0.4500000000001387 0  0.5 0.4400000000001664 0  0.5 0.4300000000001942 0  0.5 0.4200000000002219 0  0.5 0.4100000000002497 0  0.5 0.4000000000002774 0  0.5 0.3900000000003052 0  0.5 0.3800000000003328 0  0.5 0.3700000000003606 0  0.5 0.3600000000003883 0  0.5 0.3500000000004161 0  0.5 0.3400000000004438 0  0.5 0.3300000000004716 0  0.5 0.3200000000004993 0  0.5 0.3100000000005271 0  0.5 0.3000000000005548 0  0.5 0.2900000000005825 0  0.5 0.2800000000006103 0  0.5 0.2700000000006381 0  0.5 0.2600000000006658 0  0.5 0.2500000000006935 0  0.5 0.2400000000007212 0  0.5 0.230000000000749 0  0.5 0.2200000000007767 0  0.5 0.2100000000008044 0  0.5 0.2000000000008322 0  0.5 0.19000000000086 0  0.5 0.1800000000008877 0  0.5 0.1700000000009154 0  0.5 0.1600000000009431 0  0.5 0.1500000000009709 0  0.5 0.1400000000009986 0  0.5 0.1300000000010264 0  0.5 0.1200000000010541 0  0.5 0.1100000000010818 0  0.5 0.1000000000011096 0  0.5 0.09000000000113734 0  0.5 0.08000000000116503 0  0.5 0.07000000000119283 0  0.5 0.06000000000122058 0  0.5 0.05000000000124827 0  0.5 0.04000000000127607 0  0.5 0.03000000000130376 0  0.5 0.02000000000133151 0  0.5 0.01000000000135925 0  0.5 1.376121439022882e-12 0  0.5 -0.009999999998640763 0  0.5 -0.01999999999866864 0  0.5 -0.02999999999869629 0  0.5 -0.03999999999872406 0  0.5 -0.04999999999875182 0  0.5 -0.05999999999877947 0  0.5 -0.06999999999880724 0  0.5 -0.079999999998835 0  0.5 -0.08999999999886266 0  0.5 -0.09999999999889042 0  0.5 -0.1099999999989182 0  0.5 -0.1199999999989459 0  0.5 -0.1299999999989737 0  0.5 -0.1399999999990014 0  0.5 -0.1499999999990291 0  0.5 -0.1599999999990568 0  0.5 -0.1699999999990847 0  0.5 -0.1799999999991124 0  0.5 -0.1899999999991401 0  0.5 -0.1999999999991678 0  0.5 -0.2099999999991955 0  0.5 -0.2199999999992234 0  0.5 -0.2299999999992511 0  0.5 -0.2399999999992788 0  0.5 -0.2499999999993066 0  0.5 -0.2599999999993342 0  0.5 -0.269999999999362 0  0.5 -0.2799999999993897 0  0.5 -0.2899999999994175 0  0.5 -0.2999999999994452 0  0.5 -0.3099999999994729 0  0.5 -0.3199999999995007 0  0.5 -0.3299999999995284 0  0.5 -0.3399999999995562 0  0.5 -0.3499999999995839 0  0.5 -0.3599999999996116 0  0.5 -0.3699999999996393 0  0.5 -0.379999999999667 0  0.5 -0.3899999999996949 0  0.5 -0.3999999999997226 0  0.5 -0.4099999999997503 0  0.5 -0.419999999999778 0  0.5 -0.4299999999998058 0  0.5 -0.4399999999998336 0  0.5 -0.4499999999998613 0  0.5 -0.4599999999998891 0  0.5 -0.4699999999999167 0  0.5 -0.4799999999999445 0  0.5 -0.4899999999999722 0  0.4900000000000277 -0.5 0  0.4800000000000555 -0.5 0  0.4700000000000832 -0.5 0  0.4600000000001109 -0.5 0  0.4500000000001387 -0.5 0  0.4400000000001664 -0.5 0  0.4300000000001942 -0.5 0  0.4200000000002219 -0.5 0  0.4100000000002497 -0.5 0  0.4000000000002774 -0.5 0  0.3900000000003052 -0.5 0  0.3800000000003328 -0.5 0  0.3700000000003606 -0.5 0  0.3600000000003883 -0.5 0  0.3500000000004161 -0.5 0  0.3400000000004438 -0.5 0  0.3300000000004716 -0.5 0  0.3200000000004993 -0.5 0  0.3100000000005271 -0.5 0  0.3000000000005548 -0.5 0  0.2900000000005825 -0.5 0  0.2800000000006103 -0.5 0  0.2700000000006381 -0.5 0  0.2600000000006658 -0.5 0  0.2500000000006935 -0.5 0  0.2400000000007212 -0.5 0  0.230000000000749 -0.5 0  0.2200000000007767 -0.5 0  0.2100000000008044 -0.5 0  0.2000000000008322 -0.5 0  0.19000000000086 -0.5 0  0.1800000000008877 -0.5 0  0.1700000000009154 -0.5 0  0.1600000000009431 -0.5 0  0.1500000000009709 -0.5 0  0.1400000000009986 -0.5 0  0.1300000000010264 -0.5 0  0.1200000000010541 -0.5 0  0.1100000000010818 -0.5 0  0.1000000000011096 -0.5 0  0.09000000000113734 -0.5 0  0.08000000000116503 -0.5 0  0.07000000000119283 -0.5 0  0.06000000000122058 -0.5 0  0.05000000000124827 -0.5 0  0.04000000000127607 -0.5 0  0.03000000000130376 -0.5 0  0.02000000000133151 -0.5 0  0.01000000000135925 -0.5 0  1.376121439022882e-12 -0.5 0  -0.009999999998640763 -0.5 0  -0.01999999999866864 -0.5 0  -0.02999999999869629 -0.5 0  -0.03999999999872406 -0.5 0  -0.04999999999875182 -0.5 0  -0.05999999999877947 -0.5 0  -0.06999999999880724 -0.5 0  -0.079999999998835 -0.5 0  -0.08999999999886266 -0.5 0  -0.09999999999889042 -0.5 0  -0.1099999999989182 -0.5 0  -0.1199999999989459 -0.5 0  -0.1299999999989737 -0.5 0  -0.1399999999990014 -0.5 0  -0.1499999999990291 -0.5 0  -0.1599999999990568 -0.5 0  -0.1699999999990847 -0.5 0  -0.1799999999991124 -0.5 0  -0.1899999999991401 -0.5 0  -0.1999999999991678 -0.5 0  -0.2099999999991955 -0.5 0  -0.2199999999992234 -0.5 0  -0.2299999999992511 -0.5 0  -0.2399999999992788 -0.5 0  -0.2499999999993066 -0.5 0  -0.2599999999993342 -0.5 0  -0.269999999999362 -0.5 0  -0.2799999999993897 -0.5 0  -0.2899999999994175 -0.5 0  -0.2999999999994452 -0.5 0  -0.3099999999994729 -0.5 0  -0.3199999999995007 -0.5 0  -0.3299999999995284 -0.5 0  -0.3399999999995562 -0.5 0  -0.3499999999995839 -0.5 0  -0.3599999999996116 -0.5 0  -0.3699999999996393 -0.5 0  -0.379999999999667 -0.5 0  -0.3899999999996949 -0.5 0  -0.3999999999997226 -0.5 0  -0.4099999999997503 -0.5 0  -0.419999999999778 -0.5 0  -0.4299999999998058 -0.5 0  -0.4399999999998336 -0.5 0  -0.4499999999998613 -0.5 0  -0.4599999999998891 -0.5 0  -0.4699999999999167 -0.5 0  -0.4799999999999445 -0.5 0  -0.4899999999999722 -0.5 0  -0.5 -0.4900000000000277 0  -0.5 -0.4800000000000555 0  -0.5 -0.4700000000000832 0  -0.5 -0.4600000000001109 0  -0.5 -0.4500000000001387 0  -0.5 -0.4400000000001664 0  -0.5 -0.4300000000001942 0  -0.5 -0.4200000000002219 0  -0.5 -0.4100000000002497 0  -0.5 -0.4000000000002774 0  -0.5 -0.3900000000003052 0  -0.5 -0.3800000000003328 0  -0.5 -0.3700000000003606 0  -0.5 -0.3600000000003883 0  -0.5 -0.3500000000004161 0  -0.5 -0.3400000000004438 0  -0.5 -0.3300000000004716 0  -0.5 -0.3200000000004993 0  -0.5 -0.3100000000005271 0  -0.5 -0.3000000000005548 0  -0.5 -0.2900000000005825 0  -0.5 -0.2800000000006103 0  -0.5 -0.2700000000006381 0  -0.5 -0.2600000000006658 0  -0.5 -0.2500000000006935 0  -0.5 -0.2400000000007212 0  -0.5 -0.230000000000749 0  -0.5 -0.2200000000007767 0  -0.5 -0.2100000000008044 0  -0.5 -0.2000000000008322 0  -0.5 -0.19000000000086 0  -0.5 -0.1800000000008877 0  -0.5 -0.1700000000009154 0  -0.5 -0.1600000000009431 0  -0.5 -0.1500000000009709 0  -0.5 -0.1400000000009986 0  -0.5 -0.1300000000010264 0  -0.5 -0.1200000000010541 0  -0.5 -0.1100000000010818 0  -0.5 -0.1000000000011096 0  -0.5 -0.09000000000113734 0  -0.5 -0.08000000000116503 0  -0.5 -0.07000000000119283 0  -0.5 -0.06000000000122058 0  -0.5 -0.05000000000124827 0  -0.5 -0.04000000000127607 0  -0.5 -0.03000000000130376 0  -0.5 -0.02000000000133151 0  -0.5 -0.01000000000135925 0  -0.5 -1.376121439022882e-12 0  -0.5 0.009999999998640763 0  -0.5 0.01999999999866864 0  -0.5 0.02999999999869629 0  -0.5 0.03999999999872406 0  -0.5 0.04999999999875182 0  -0.5 0.05999999999877947 0  -0.5 0.06999999999880724 0  -0.5 0.079999999998835 0  -0.5 0.08999999999886266 0  -0.5 0.09999999999889042
[...]
<PointData  Vectors="f_27-0"> 
<DataArray  type="Float64"  Name="f_27-0"  NumberOfComponents="3" format="ascii">5.1889415818374691e-04 4.3175574315730152e-02 0.0000000000000000e+00  -7.9890569014312075e-04 4.3154752253893050e-02 0.0000000000000000e+00  4.8243417508276411e-04 4.2015467339694898e-02 0.0000000000000000e+00  -2.6094348320745248e-04 4.2001105844269464e-02 0.0000000000000000e+00  -1.8355953883901664e-03 6.9455822554149432e-03 0.0000000000000000e+00  1.9844758552340067e-03 6.7280704045860800e-03 0.0000000000000000e+00  -1.7542462650533409e-03 6.9703490389498683e-03 0.0000000000000000e+00  1.9278162979492095e-03 6.7142011297887851e-03 0.0000000000000000e+00  1.5552817359115140e-03 4.2563349586158830e-02 0.0000000000000000e+00  2.5487480333633745e-03 4.1895277663669822e-02 0.0000000000000000e+00  3.5098718687549845e-03 4.1168984715388865e-02 0.0000000000000000e+00  4.4335836017558956e-03 4.0387387683024613e-02 0.0000000000000000e+00  5.3097189931514766e-03 3.9554621453969652e-02 0.0000000000000000e+00  6.1408463823615419e-03 3.8677304314845000e-02 0.0000000000000000e+00  6.9219669058648665e-03 3.7753107634730422e-02 0.0000000000000000e+00  7.6540447030291076e-03 3.6791992637664875e-02 0.0000000000000000e+00  8.3328033001795407e-03 3.5800258744207794e-02 0.0000000000000000e+00  8.9542469377370468e-03 3.4777625960927989e-02 0.0000000000000000e+00  9.5259773277382286e-03 3.3732180613265210e-02 0.0000000000000000e+00  1.0037531505298512e-02 3.2665774729913992e-02 0.0000000000000000e+00  1.0493974681148259e-02 3.1583079265934254e-02 0.0000000000000000e+00  1.0895627754368465e-02 3.0487269277771709e-02 0.0000000000000000e+00  1.1237360362078723e-02 2.9390336235808896e-02 0.0000000000000000e+00  1.1526083417229696e-02 2.8291953682323262e-02 0.0000000000000000e+00  1.1760916553995086e-02 2.7189703135226638e-02 0.0000000000000000e+00  1.1938822264405171e-02 2.6097957653851169e-02 0.0000000000000000e+00  1.2065397167141246e-02 2.5015584720370545e-02 0.0000000000000000e+00  1.2142631240402277e-02 2.3945249803245219e-02 0.0000000000000000e+00  1.2168281033932428e-02 2.2892977820206741e-02 0.0000000000000000e+00  1.2146698401563984e-02 2.1857968517962730e-02 0.0000000000000000e+00  1.2081932674598176e-02 2.0845453697926283e-02 0.0000000000000000e+00  1.1970228321733571e-02 1.9857877047108622e-02 0.0000000000000000e+00  1.1816181912984452e-02 1.8895305592537746e-02 0.0000000000000000e+00  1.1627205574598579e-02 1.7964052122825230e-02 0.0000000000000000e+00  1.1396025496274732e-02 1.7064041718712505e-02 0.0000000000000000e+00  1.1130752172603989e-02 1.6198803955458450e-02 0.0000000000000000e+00  1.0833265178990546e-02 1.5361192181012876e-02 0.0000000000000000e+00  1.0504743132604150e-02 1.4561882431489944e-02 0.0000000000000000e+00  1.0144542337844904e-02 1.3794537228168225e-02 0.0000000000000000e+00  9.7599006694661025e-03 1.3066061391553169e-02 0.0000000000000000e+00  9.3483124822115425e-03 1.2378182206406216e-02 0.0000000000000000e+00  8.9153727469905748e-03 1.1727230370364449e-02 0.0000000000000000e+00  8.4603253998522358e-03 1.1115313244976470e-02 0.0000000000000000e+00  7.9837312370426398e-03 1.0533162060779358e-02 0.0000000000000000e+00  7.4931270040133925e-03 1.0000368974529539e-02 0.0000000000000000e+00  6.9806752942206439e-03 9.5032287277053307e-03 0.0000000000000000e+00  6.4593234868247943e-03 9.0448464056948463e-03 0.0000000000000000e+00  5.9188721986654716e-03 8.6297704271654247e-03 0.0000000000000000e+00  5.3710431246603400e-03 8.2513913838271492e-03 0.0000000000000000e+00  4.8120752481586922e-03 7.9110258581697977e-03 0.0000000000000000e+00  4.2416209023227042e-03 7.6140991021535123e-03 0.0000000000000000e+00  3.6656076328259535e-03 7.3527678301484019e-03 0.0000000000000000e+00  3.0817404234837142e-03 7.1333422557658954e-03 0.0000000000000000e+00  2.4905220154775314e-03 6.9513684832729575e-03 0.0000000000000000e+00  1.8981468003638207e-03 6.8118010890628597e-03 0.0000000000000000e+00  1.2991584627064831e-03 6.7085257195653673e-03 0.0000000000000000e+00  7.0286088701962857e-04 6.6429401345206437e-03 0.0000000000000000e+00  9.9613011666382619e-05 6.6208580704581596e-03 0.0000000000000000e+00  -5.0196360262627941e-04 6.6353189981264325e-03 0.0000000000000000e+00  -1.1005955536056980e-03 6.6893119302424619e-03 0.0000000000000000e+00  -1.6996217986199192e-03 6.7783958494001826e-03 0.0000000000000000e+00  -2.2943935993152030e-03 6.9106314679287543e-03 0.0000000000000000e+00  -2.8865824821025735e-03 7.0818788651152570e-03 0.0000000000000000e+00  -3.4702155219865495e-03 7.2920740684914867e-03 0.0000000000000000e+00  -4.0508217599297723e-03 7.5426433666536995e-03 0.0000000000000000e+00  -4.6210543449440719e-03 7.8323610970554361e-03 0.0000000000000000e+00  -5.1840972499996862e-03 8.1614255903426827e-03 0.0000000000000000e+00  -5.7391744482386889e-03 8.5282677366800234e-03 0.0000000000000000e+00  -6.2788485433227827e-03 8.9370161118508505e-03 0.0000000000000000e+00  -6.8099035438090750e-03 9.3844784096904065e-03 0.0000000000000000e+00  -7.3237826499106358e-03 9.8700221431610047e-03 0.0000000000000000e+00  -7.8226698533420055e-03 1.0395231111139051e-02 0.0000000000000000e+00  -8.3042987353637646e-03 1.0961343146547021e-02 0.0000000000000000e+00  -8.7656308519098725e-03 1.1563339248307157e-02 0.0000000000000000e+00  -9.2099653622711129e-03 1.2204356568507678e-02 0.0000000000000000e+00  -9.6252131100713085e-03 1.2887869762880751e-02 0.0000000000000000e+00  -1.0023625737422010e-02 1.3605071518413480e-02 0.0000000000000000e+00  -1.0390143120285416e-02 1.4363335344224883e-02 0.0000000000000000e+00  -1.0727823475779429e-02 1.5157162807870730e-02 0.0000000000000000e+00  -1.1038840117885640e-02 1.5982884537705661e-02 0.0000000000000000e+00  -1.1314589842735158e-02 1.6839213246613891e-02 0.0000000000000000e+00  -1.1559696739938572e-02 1.7733665898908142e-02 0.0000000000000000e+00  -1.1758961184614921e-02 1.8659874679934966e-02 0.0000000000000000e+00  -1.1932310921244907e-02 1.9615943603099862e-02 0.0000000000000000e+00  -1.2052426771656194e-02 2.0600846614498281e-02 0.0000000000000000e+00  -1.2137724778832876e-02 2.1605213760243151e-02 0.0000000000000000e+00  -1.2173470616265718e-02 2.2641314857340954e-02 0.0000000000000000e+00  -1.2163288592984644e-02 2.3692244361593132e-02 0.0000000000000000e+00  -1.2104046194315489e-02 2.4762784162422211e-02 0.0000000000000000e+00  -1.1994290019650425e-02 2.5844733866016927e-02 0.0000000000000000e+00  -1.1833405019783130e-02 2.6937271498263072e-02 0.0000000000000000e+00  -1.1615553169540859e-02 2.8043749755025885e-02 0.0000000000000000e+00  -1.1345416613030254e-02 2.9145982098230241e-02 0.0000000000000000e+00  -1.1020075434244247e-02 3.0253205765902069e-02 0.0000000000000000e+00  -1.0636397547336536e-02 3.1352896758191737e-02 0.0000000000000000e+00  -1.0197119938415789e-02 3.2443096692111657e-02 0.0000000000000000e+00  -9.6991710302932240e-03 3.3520063363776380e-02 0.0000000000000000e+00  -9.1484696527979401e-03 3.4579286328786908e-02 0.0000000000000000e+00  -8.5378736200344557e-03 3.5613894292637636e-02 0.0000000000000000e+00  -7.8725884043667656e-03 3.6622892051451063e-02 0.0000000000000000e+00  -7.1537705596806476e-03 3.7595024467343363e-02 0.0000000000000000e+00  -6.3837645727396180e-03 3.8535951521115060e-02 0.0000000000000000e+00  -5.5633959922863161e-03 3.9436516000513282e-02 0.0000000000000000e+00  -4.6978900795001423e-03 4.0286139654287824e-02 0.0000000000000000e+00  -3.7798165559865217e-03 4.1089169427714650e-02 0.0000000000000000e+00  -2.8245290818909871e-03 4.1833751440229085e-02 0.0000000000000000e+00  -1.8346029605953976e-03 4.2520882146563396e-02 0.0000000000000000e+00  -1.0189822969316430e-03 4.4235069891232867e-02 0.0000000000000000e+00  -1.2563512077269179e-03 4.5345772713256446e-02 0.0000000000000000e+00  -1.5076498796844145e-03 4.6526792336717575e-02 0.0000000000000000e+00  -1.7702545907323283e-03 4.7753726508352516e-02 0.0000000000000000e+00  -2.0497018408644229e-03 4.9048489217827243e-02 0.0000000000000000e+00  -2.3698054942594914e-03 5.0411551907491602e-02 0.0000000000000000e+00  -2.6747800675091409e-03 5.1824669913393316e-02 0.0000000000000000e+00  -3.0154438809274760e-03 5.3333260202052826e-02 0.0000000000000000e+00  -3.3859500990155644e-03 5.4900839569745216e-02 0.0000000000000000e+00  -3.7576471192901062e-03 5.6560276147579178e-02 0.0000000000000000e+00  -4.1575138797066797e-03 5.8309448727764272e-02 0.0000000000000000e+00  -4.5855069482860665e-03 6.0144652528495830e-02 0.0000000000000000e+00  -5.0412848617434969e-03 6.2094762210926496e-02 0.0000000000000000e+00  -5.5208834989438982e-03 6.4131505908026187e-02 0.0000000000000000e+00  -6.0211779320951432e-03 6.6297332897512024e-02 0.0000000000000000e+00  -6.5635014091743821e-03 6.8588012860616054e-02 0.0000000000000000e+00  -7.1459491669942816e-03 7.0993647280485211e-02 0.0000000000000000e+00  -7.7468495688640089e-03 7.3551319512697583e-02 0.0000000000000000e+00  -8.3692878636269456e-03 7.6256685850673314e-02 0.0000000000000000e+00  -9.0452615450520267e-03 7.9112712321078527e-02 0.0000000000000000e+00  -9.7678923793525600e-03 8.2138832813889437e-02 0.0000000000000000e+00  -1.0534687354588314e-02 8.5341594562506548e-02 0.0000000000000000e+00  -1.1355530020329603e-02 8.8735672698935383e-02 0.0000000000000000e+00  -1.2211962535600857e-02 9.2298239104693966e-02 0.0000000000000000e+00  -1.3076778611146559e-02 9.6099397336640677e-02 0.0000000000000000e+00  -1.4009345256908700e-02 1.0005118263122750e-01 0.0000000000000000e+00  -1.4953496058350320e-02 1.0425291534177336e-01 0.0000000000000000e+00  -1.5903512652266489e-02 1.0862850116761133e-01 0.0000000000000000e+00  -1.6820164710820637e-02 1.1318587974796669e-01 0.0000000000000000e+00  -1.7708038912741322e-02 1.1789003016344124e-01 0.0000000000000000e+00  -1.8444304027748569e-02 1.2275127792791055e-01 0.0000000000000000e+00  -1.8962443374991617e-02 1.2764072312526287e-01 0.0000000000000000e+00  -1.9104832144126054e-02 1.3256371580875304e-01 0.0000000000000000e+00  -1.8789471318476428e-02 1.3730184610775104e-01 0.0000000000000000e+00  -1.7777821780125890e-02 1.4183994814843809e-01 0.0000000000000000e+00  -1.5727038946249994e-02 1.4591302820505220e-01 0.0000000000000000e+00  -1.2573903953451563e-02 1.4931772798027337e-01 0.0000000000000000e+00  -7.7588835856002430e-03 1.5171372762438248e-01 0.0000000000000000e+00  -1.0706103304559788e-03 1.5279706254250244e-01 0.0000000000000000e+00  8.0631488556723620e-03 1.5211910391022967e-01 0.0000000000000000e+00  1.9682972309148183e-02 1.4903551618609134e-01 0.0000000000000000e+00  3.4204646401786942e-02 1.4310169785426910e-01 0.0000000000000000e+00  5.1081326669374136e-02 1.3356448113372757e-01 0.0000000000000000e+00  6.9142780989112834e-02 1.1994917836660059e-01 0.0000000000000000e+00  8.5188919740260327e-02 1.0239645901790796e-01 0.0000000000000000e+00  9.3129990610483784e-02 8.1383825240638571e-02 0.0000000000000000e+00  8.3902071057484442e-02 5.9584435823901778e-02 0.0000000000000000e+00  5.0833257053205530e-02 3.9628250148470996e-02 0.0000000000000000e+00  -5.5174995792513426e-03 2.8542868531066429e-02 0.0000000000000000e+00  -6.5868877638465814e-02 3.3981795775429598e-02 0.0000000000000000e+00  -9.6708503901820994e-02 5.6456636661797371e-02 0.0000000000000000e+00  -9.4459220035209276e-02 8.8392135081015649e-02 0.0000000000000000e+00  -7.5556183482182862e-02 1.1472799668806871e-01 0.0000000000000000e+00  -5.5878202988342292e-02 1.3336934913012086e-01 0.0000000000000000e+00  -3.8986915814188582e-02 1.4556163243117945e-01 0.0000000000000000e+00  -2.5313080332092664e-02 1.5328001638021849e-01 0.0000000000000000e+00  -1.4138702772688820e-02 1.5734142638221110e-01 0.0000000000000000e+00  -5.4604672775966220e-03 1.5892089035724918e-01 0.0000000000000000e+00  1.4412609643867202e-03 1.5834880924438677e-01 0.0000000000000000e+00  6.5812049425946033e-03 1.5651275704560441e-01 0.0000000000000000e+00  1.0487717877592413e-02 1.5344422800099244e-01 0.0000000000000000e+00  1.3176986775710392e-02 1.4969856349516447e-01 0.0000000000000000e+00  1.5041870013146285e-02 1.4536418429177547e-01 0.0000000000000000e+00  1.6136487142508434e-02 1.4069861630624042e-01 0.0000000000000000e+00  1.6664126949300247e-02 1.3582717022753721e-01 0.0000000000000000e+00  1.6806526322137694e-02 1.3089531482120051e-01 0.0000000000000000e+00  1.6562518104476589e-02 1.2592717606016252e-01 0.0000000000000000e+00  1.6158246541372181e-02 1.2106000636241387e-01 0.0000000000000000e+00  1.5547463239157342e-02 1.1629450395471820e-01 0.0000000000000000e+00  1.4869961570027384e-02 1.1166331203206306e-01 0.0000000000000000e+00  1.4114798853465890e-02 1.0723581788375364e-01 0.0000000000000000e+00  1.3378467711783755e-02 1.0296160413003567e-01 0.0000000000000000e+00  1.2583716393000946e-02 9.8942082382507804e-02 0.0000000000000000e+00  1.1845626926976377e-02 9.5042451391129198e-02 0.0000000000000000e+00  1.1078804919413862e-02 9.1397597811725559e-02 0.0000000000000000e+00  1.0334617313117047e-02 8.7903767740050501e-02 0.0000000000000000e+00  9.6520526019539463e-03 8.4620100261925291e-02 0.0000000000000000e+00  9.0048028011128853e-03 8.1494740847054367e-02 0.0000000000000000e+00  8.3635174873257067e-03 7.8540346715941456e-02 0.0000000000000000e+00  7.7520940341034598e-03 7.5752686313875855e-02 0.0000000000000000e+00  7.1824965278862547e-03 7.3100354586446731e-02 0.0000000000000000e+00  6.6394058288046284e-03 7.0604405013988944e-02 0.0000000000000000e+00  6.1118114399457682e-03 6.8229139195056784e-02 0.0000000000000000e+00  5.6296963772582359e-03 6.5982432934624302e-02 0.0000000000000000e+00  5.1627848844387333e-03 6.3856628603536483e-02 0.0000000000000000e+00  4.7113762683830551e-03 6.1838910069614852e-02 0.0000000000000000e+00  4.2865069899630688e-03 5.9918812061522844e-02 0.0000000000000000e+00  3.8869136608353986e-03 5.8104029826859492e-02 0.0000000000000000e+00  3.5144159641203820e-03 5.6367487280890131e-02 0.0000000000000000e+00  3.1553796022585306e-03 5.4734410705588238e-02 0.0000000000000000e+00  2.8110325901106064e-03 5.3164173743190379e-02 0.0000000000000000e+00  2.4830111785637985e-03 5.1680967656527223e-02 0.0000000000000000e+00  2.1830059739483413e-03 5.0261105222992757e-02 0.0000000000000000e+00  1.8974990742562994e-03 4.8908286029708710e-02 0.0000000000000000e+00  1.6216978639821712e-03 4.7630972367533948e-02 0.0000000000000000e+00  1.3655737053440873e-03 4.6401654470748586e-02 0.0000000000000000e+00  1.1242324212586794e-03 4.5225408477696682e-02 0.0000000000000000e+00  8.8964082355698251e-04 4.4112101631515202e-02 0.0000000000000000e+00  6.7931250905711271e-04 4.3043302885301830e-02 0.0000000000000000e+00  1.4731287451196355e-03 4.1422088007479443e-02 0.0000000000000000e+00  2.4222544770182955e-03 4.0765747531941302e-02 0.0000000000000000e+00  3.3349592068944566e-03 4.0058388418291180e-02 0.0000000000000000e+00  4.2121222265454001e-03 3.9300135619436481e-02 0.0000000000000000e+00  5.0446591607164618e-03 3.8492815334265240e-02 0.0000000000000000e+00  5.8346215805175723e-03 3.7645614594451940e-02 0.0000000000000000e+00  6.5738267533332019e-03 3.6751186241829860e-02 0.0000000000000000e+00  7.2719815964445884e-03 3.5822922054827837e-02 0.0000000000000000e+00  7.9150058742976995e-03 3.4870874319301387e-02 0.0000000000000000e+00  8.5043444433257481e-03 3.3882473981900182e-02 0.0000000000000000e+00  9.0458360780763108e-03 3.2875748200577593e-02 0.0000000000000000e+00  9.5323999974670729e-03 3.1850678039142738e-02 0.0000000000000000e+00  9.9638993498826663e-03 3.0810233244968951e-02 0.0000000000000000e+00  1.0344897412221006e-02 2.9757901464240656e-02 0.0000000000000000e+00  1.0669856173623742e-02 2.8702135688755553e-02 0.0000000000000000e+00  1.0943343770751702e-02 2.7649849202702050e-02 0.0000000000000000e+00  1.1163132348854334e-02 2.6591328995653737e-02 0.0000000000000000e+00  1.1332887656905644e-02 2.5540041682816178e-02 0.0000000000000000e+00  1.1452414855926227e-02 2.4499541754852642e-02 0.0000000000000000e+00  1.1524164533043665e-02 2.3472227068654629e-02 0.0000000000000000e+00  1.1549125900638967e-02 2.2462244751610020e-02 0.0000000000000000e+00  1.1525633458186494e-02 2.1466519195277940e-02 0.0000000000000000e+00  1.1464124991862610e-02 2.0496504834877374e-02 0.0000000000000000e+00  1.1355429605928538e-02 1.9544355246845599e-02 0.0000000000000000e+00  1.1208080257099394e-02 1.8618956209335263e-02 0.0000000000000000e+00  1.1024938262918924e-02 1.7723874639971850e-02 0.0000000000000000e+00  1.0804264946870116e-02 1.6859027951413211e-02 0.0000000000000000e+00  1.0549921228510083e-02 1.6025831435280490e-02 0.0000000000000000e+00  1.0261239705560471e-02 1.5221203649599386e-02 0.0000000000000000e+00  9.9470551242588998e-03 1.4453579235899891e-02 0.0000000000000000e+00  9.5997802568150575e-03 1.3713590971347540e-02 0.0000000000000000e+00  9.2312616573226470e-03 1.3013862872242474e-02 0.0000000000000000e+00  8.8343734262429727e-03 1.2350878736451833e-02 0.0000000000000000e+00  8.4174860809887661e-03 1.1724458945022881e-02 0.0000000000000000e+00  7.9794743288794275e-03 1.1134876311927713e-02 0.0000000000000000e+00  7.5199907491458979e-03 1.0575122416874973e-02 0.0000000000000000e+00  7.0482572309510782e-03 1.0064585478046265e-02 0.0000000000000000e+00  6.5526787365116843e-03 9.5869103530640837e-03 0.0000000000000000e+00  6.0521256349535570e-03 9.1483956474911355e-03 0.0000000000000000e+00  5.5302437864566262e-03 8.7512063466992744e-03 0.0000000000000000e+00  5.0019846794239035e-03 8.3896319136248856e-03 0.0000000000000000e+00  4.4624252630358343e-03 8.0676929924659354e-03 0.0000000000000000e+00  3.9131160099170736e-03 7.7849207899865925e-03 0.0000000000000000e+00  3.3574326588513091e-03 7.5381499822345238e-03 0.0000000000000000e+00  2.7941974391133243e-03 7.3329389571290624e-03 0.0000000000000000e+00  2.2243606035889166e-03 7.1628869809102587e-03 0.0000000000000000e+00  1.6541147201819268e-03 7.0350890367352507e-03 0.0000000000000000e+00  1.0754590349179754e-03 6.9403493520512486e-03 0.0000000000000000e+00  5.0216330760534302e-04 6.8856334632421490e-03 0.0000000000000000e+00  -7.8307793453006065e-05 6.8752665233067336e-03 0.0000000000000000e+00  -6.5750709633109966e-04 6.8970296018703529e-03 0.0000000000000000e+00  -1.2332728134049561e-03 6.9598823934562733e-03 0.0000000000000000e+00  -1.8084607357902454e-03 7.0574787092342536e-03 0.0000000000000000e+00  -2.3787903340271284e-03 7.1971430063557775e-03 0.0000000000000000e+00  -2.9465652220788305e-03 7.3738190916032235e-03 0.0000000000000000e+00  -3.5046366531020583e-03 7.5891620815693823e-03 0.0000000000000000e+00  -4.0604296856627167e-03 7.8424464879154419e-03 0.0000000000000000e+00  -4.6046350783714050e-03 8.1356228201526198e-03 0.0000000000000000e+00  -5.1411050926248401e-03 8.4679274852257208e-03 0.0000000000000000e+00  -5.6688210680365288e-03 8.8374803642808225e-03 0.0000000000000000e+00  -6.1809689873058632e-03 9.2450063903773277e-03 0.0000000000000000e+00  -6.6832264984611426e-03 9.6917579064998878e-03 0.0000000000000000e+00  -7.1682857619400292e-03 1.0174027975762738e-02 0.0000000000000000e+00  -7.6379652884409508e-03 1.0696083859338281e-02 0.0000000000000000e+00  -8.0893089488631633e-03 1.1258746276007162e-02 0.0000000000000000e+00  -8.5212580798808800e-03 1.1855840160160714e-02 0.0000000000000000e+00  -8.9322372419043342e-03 1.2487637255010405e-02 0.0000000000000000e+00  -9.3169651281090754e-03 1.3160929979598085e-02 0.0000000000000000e+00  -9.6829309163247810e-03 1.3866176852359377e-02 0.0000000000000000e+00  -1.0016967139422508e-02 1.4609183388512992e-02 0.0000000000000000e+00  -1.0323349469727194e-02 1.5386256156490835e-02 0.0000000000000000e+00  -1.0601601405871226e-02 1.6194787431203218e-02 0.0000000000000000e+00  -1.0845127426416523e-02 1.7031275516166684e-02 0.0000000000000000e+00  -1.1056928576415546e-02 1.7901085621450236e-02 0.0000000000000000e+00  -1.1225160236979236e-02 1.8800805350803074e-02 0.0000000000000000e+00  -1.1365763522813672e-02 1.9731404205415092e-02 0.0000000000000000e+00  -1.1455871865002380