<?xml version="1.0"?>
<VTKFile type="UnstructuredGrid"  version="0.1"  >
<UnstructuredGrid>
<Piece  NumberOfPoints="16275" NumberOfCells="32468">
<Points>
<DataArray  type="Float64"  NumberOfComponents="3"  format="ascii">-0.5 0.5 0  0.5 0.5 0  0.5 -0.5 0  -0.5 -0.5 0  -1 1 0  1 1 0  1 -1 0  -1 -1 0  -0.4900000000000277 0.5 0  -0.4800000000000555 0.5 0  -0.4700000000000832 0.5 0  -0.4600000000001109 0.5 0  -0.4500000000001387 0.5 0  -0.4400000000001664 0.5 0  -0.4300000000001942 0.5 0  -0.4200000000002219 0.5 0  -0.4100000000002497 0.5 0  -0.4000000000002774 0.5 0  -0.3900000000003052 0.5 0  -0.3800000000003328 0.5 0  -0.3700000000003606 0.5 0  -0.3600000000003883 0.5 0  -0.3500000000004161 0.5 0  -0.3400000000004438 0.5 0  -0.3300000000004716 0.5 0  -0.3200000000004993 0.5 0  -0.3100000000005271 0.5 0  -0.3000000000005548 0.5 0  -0.2900000000005825 0.5 0  -0.2800000000006103 0.5 0  -0.2700000000006381 0.5 0  -0.2600000000006658 0.5 0  -0.2500000000006935 0.5 0  -0.2400000000007212 0.5 0  -0.230000000000749 0.5 0  -0.2200000000007767 0.5 0  -0.2100000000008044 0.5 0  -0.2000000000008322 0.5 0  -0.19000000000086 0.5 0  -0.1800000000008877 0.5 0  -0.1700000000009154 0.5 0  -0.1600000000009431 0.5 0  -0.1500000000009709 0.5 0  -0.1400000000009986 0.5 0  -0.1300000000010264 0.5 0  -0.1200000000010541 0.5 0  -0.1100000000010818 0.5 0  -0.1000000000011096 0.5 0  -0.09000000000113734 0.5 0  -0.08000000000116503 0.5 0  -0.07000000000119283 0.5 0  -0.06000000000122058 0.5 0  -0.05000000000124827 0.5 0  -0.04000000000127607 0.5 0  -0.03000000000130376 0.5 0  -0.02000000000133151 0.5 0  -0.01000000000135925 0.5 0  -1.376121439022882e-12 0.5 0  0.009999999998640763 0.5 0  0.01999999999866864 0.5 0  0.02999999999869629 0.5 0  0.03999999999872406 0.5 0  0.04999999999875182 0.5 0  0.05999999999877947 0.5 0  0.06999999999880724 0.5 0  0.079999999998835 0.5 0  0.08999999999886266 0.5 0  0.09999999999889042 0.5 0  0.1099999999989182 0.5 0  0.1199999999989459 0.5 0  0.1299999999989737 0.5 0  0.1399999999990014 0.5 0  0.1499999999990291 0.5 0  0.1599999999990568 0.5 0  0.1699999999990847 0.5 0  0.1799999999991124 0.5 0  0.1899999999991401 0.5 0  0.1999999999991678 0.5 0  0.2099999999991955 0.5 0  0.2199999999992234 0.5 0  0.2299999999992511 0.5 0  0.2399999999992788 0.5 0  0.2499999999993066 0.5 0  0.2599999999993342 0.5 0  0.269999999999362 0.5 0  0.2799999999993897 0.5 0  0.2899999999994175 0.5 0  0.2999999999994452 0.5 0  0.3099999999994729 0.5 0  0.3199999999995007 0.5 0  0.3299999999995284 0.5 0  0.3399999999995562 0.5 0  0.3499999999995839 0.5 0  0.3599999999996116 0.5 0  0.3699999999996393 0.5 0  0.379999999999667 0.5 0  0.3899999999996949 0.5 0  0.3999999999997226 0.5 0  0.4099999999997503 0.5 0  0.419999999999778 0.5 0  0.4299999999998058 0.5 0  0.4399999999998336 0.5 0  0.4499999999998613 0.5 0  0.4599999999998891 0.5 0  0.4699999999999167 0.5 0  0.4799999999999445 0.5 0  0.4899999999999722 0.5 0  0.5 0.4900000000000277 0  0.5 0.4800000000000555 0  0.5 0.4700000000000832 0  0.5 0.4600000000001109 0  0.5 0.4500000000001387 0  0.5 0.4400000000001664 0  0.5 0.4300000000001942 0  0.5 0.4200000000002219 0  0.5 0.4100000000002497 0  0.5 0.4000000000002774 0  0.5 0.3900000000003052 0  0.5 0.3800000000003328 0  0.5 0.3700000000003606 0  0.5 0.3600000000003883 0  0.5 0.3500000000004161 0  0.5 0.3400000000004438 0  0.5 0.3300000000004716 0  0.5 0.3200000000004993 0  0.5 0.3100000000005271 0  0.5 0.3000000000005548 0  0.5 0.2900000000005825 0  0.5 0.2800000000006103 0  0.5 0.2700000000006381 0  0.5 0.2600000000006658 0  0.5 0.2500000000006935 0  0.5 0.2400000000007212 0  0.5 0.230000000000749 0  0.5 0.2200000000007767 0  0.5 0.2100000000008044 0  0.5 0.2000000000008322 0  0.5 0.19000000000086 0  0.5 0.1800000000008877 0  0.5 0.1700000000009154 0  0.5 0.1600000000009431 0  0.5 0.1500000000009709 0  0.5 0.1400000000009986 0  0.5 0.1300000000010264 0  0.5 0.1200000000010541 0  0.5 0.1100000000010818 0  0.5 0.1000000000011096 0  0.5 0.09000000000113734 0  0.5 0.08000000000116503 0  0.5 0.07000000000119283 0  0.5 0.06000000000122058 0  0.5 0.05000000000124827 0  0.5 0.04000000000127607 0  0.5 0.03000000000130376 0  0.5 0.02000000000133151 0  0.5 0.01000000000135925 0  0.5 1.376121439022882e-12 0  0.5 -0.009999999998640763 0  0.5 -0.01999999999866864 0  0.5 -0.02999999999869629 0  0.5 -0.03999999999872406 0  0.5 -0.04999999999875182 0  0.5 -0.05999999999877947 0  0.5 -0.06999999999880724 0  0.5 -0.079999999998835 0  0.5 -0.08999999999886266 0  0.5 -0.09999999999889042 0  0.5 -0.1099999999989182 0  0.5 -0.1199999999989459 0  0.5 -0.1299999999989737 0  0.5 -0.1399999999990014 0  0.5 -0.1499999999990291 0  0.5 -0.1599999999990568 0  0.5 -0.1699999999990847 0  0.5 -0.1799999999991124 0  0.5 -0.1899999999991401 0  0.5 -0.1999999999991678 0  0.5 -0.2099999999991955 0  0.5 -0.2199999999992234 0  0.5 -0.2299999999992511 0  0.5 -0.2399999999992788 0  0.5 -0.2499999999993066 0  0.5 -0.2599999999993342 0  0.5 -0.269999999999362 0  0.5 -0.2799999999993897 0  0.5 -0.2899999999994175 0  0.5 -0.2999999999994452 0  0.5 -0.3099999999994729 0  0.5 -0.3199999999995007 0  0.5 -0.3299999999995284 0  0.5 -0.3399999999995562 0  0.5 -0.3499999999995839 0  0.5 -0.3599999999996116 0  0.5 -0.3699999999996393 0  0.5 -0.379999999999667 0  0.5 -0.3899999999996949 0  0.5 -0.3999999999997226 0  0.5 -0.4099999999997503 0  0.5 -0.419999999999778 0  0.5 -0.4299999999998058 0  0.5 -0.4399999999998336 0  0.5 -0.4499999999998613 0  0.5 -0.4599999999998891 0  0.5 -0.4699999999999167 0  0.5 -0.4799999999999445 0  0.5 -0.4899999999999722 0  0.4900000000000277 -0.5 0  0.4800000000000555 -0.5 0  0.4700000000000832 -0.5 0  0.4600000000001109 -0.5 0  0.4500000000001387 -0.5 0  0.4400000000001664 -0.5 0  0.4300000000001942 -0.5 0  0.4200000000002219 -0.5 0  0.4100000000002497 -0.5 0  0.4000000000002774 -0.5 0  0.3900000000003052 -0.5 0  0.3800000000003328 -0.5 0  0.3700000000003606 -0.5 0  0.3600000000003883 -0.5 0  0.3500000000004161 -0.5 0  0.3400000000004438 -0.5 0  0.3300000000004716 -0.5 0  0.3200000000004993 -0.5 0  0.3100000000005271 -0.5 0  0.3000000000005548 -0.5 0  0.2900000000005825 -0.5 0  0.2800000000006103 -0.5 0  0.2700000000006381 -0.5 0  0.2600000000006658 -0.5 0  0.2500000000006935 -0.5 0  0.2400000000007212 -0.5 0  0.230000000000749 -0.5 0  0.2200000000007767 -0.5 0  0.2100000000008044 -0.5 0  0.2000000000008322 -0.5 0  0.19000000000086 -0.5 0  0.1800000000008877 -0.5 0  0.1700000000009154 -0.5 0  0.1600000000009431 -0.5 0  0.1500000000009709 -0.5 0  0.1400000000009986 -0.5 0  0.1300000000010264 -0.5 0  0.1200000000010541 -0.5 0  0.1100000000010818 -0.5 0  0.1000000000011096 -0.5 0  0.09000000000113734 -0.5 0  0.08000000000116503 -0.5 0  0.07000000000119283 -0.5 0  0.06000000000122058 -0.5 0  0.05000000000124827 -0.5 0  0.04000000000127607 -0.5 0  0.03000000000130376 -0.5 0  0.02000000000133151 -0.5 0  0.01000000000135925 -0.5 0  1.376121439022882e-12 -0.5 0  -0.009999999998640763 -0.5 0  -0.01999999999866864 -0.5 0  -0.02999999999869629 -0.5 0  -0.03999999999872406 -0.5 0  -0.04999999999875182 -0.5 0  -0.05999999999877947 -0.5 0  -0.06999999999880724 -0.5 0  -0.079999999998835 -0.5 0  -0.08999999999886266 -0.5 0  -0.09999999999889042 -0.5 0  -0.1099999999989182 -0.5 0  -0.1199999999989459 -0.5 0  -0.1299999999989737 -0.5 0  -0.1399999999990014 -0.5 0  -0.1499999999990291 -0.5 0  -0.1599999999990568 -0.5 0  -0.1699999999990847 -0.5 0  -0.1799999999991124 -0.5 0  -0.1899999999991401 -0.5 0  -0.1999999999991678 -0.5 0  -0.2099999999991955 -0.5 0  -0.2199999999992234 -0.5 0  -0.2299999999992511 -0.5 0  -0.2399999999992788 -0.5 0  -0.2499999999993066 -0.5 0  -0.2599999999993342 -0.5 0  -0.269999999999362 -0.5 0  -0.2799999999993897 -0.5 0  -0.2899999999994175 -0.5 0  -0.2999999999994452 -0.5 0  -0.3099999999994729 -0.5 0  -0.3199999999995007 -0.5 0  -0.3299999999995284 -0.5 0  -0.3399999999995562 -0.5 0  -0.3499999999995839 -0.5 0  -0.3599999999996116 -0.5 0  -0.3699999999996393 -0.5 0  -0.379999999999667 -0.5 0  -0.3899999999996949 -0.5 0  -0.3999999999997226 -0.5 0  -0.4099999999997503 -0.5 0  -0.419999999999778 -0.5 0  -0.4299999999998058 -0.5 0  -0.4399999999998336 -0.5 0  -0.4499999999998613 -0.5 0  -0.4599999999998891 -0.5 0  -0.4699999999999167 -0.5 0  -0.4799999999999445 -0.5 0  -0.4899999999999722 -0.5 0  -0.5 -0.4900000000000277 0  -0.5 -0.4800000000000555 0  -0.5 -0.4700000000000832 0  -0.5 -0.4600000000001109 0  -0.5 -0.4500000000001387 0  -0.5 -0.4400000000001664 0  -0.5 -0.4300000000001942 0  -0.5 -0.4200000000002219 0  -0.5 -0.4100000000002497 0  -0.5 -0.4000000000002774 0  -0.5 -0.3900000000003052 0  -0.5 -0.3800000000003328 0  -0.5 -0.3700000000003606 0  -0.5 -0.3600000000003883 0  -0.5 -0.3500000000004161 0  -0.5 -0.3400000000004438 0  -0.5 -0.3300000000004716 0  -0.5 -0.3200000000004993 0  -0.5 -0.3100000000005271 0  -0.5 -0.3000000000005548 0  -0.5 -0.2900000000005825 0  -0.5 -0.2800000000006103 0  -0.5 -0.2700000000006381 0  -0.5 -0.2600000000006658 0  -0.5 -0.2500000000006935 0  -0.5 -0.2400000000007212 0  -0.5 -0.230000000000749 0  -0.5 -0.2200000000007767 0  -0.5 -0.2100000000008044 0  -0.5 -0.2000000000008322 0  -0.5 -0.19000000000086 0  -0.5 -0.1800000000008877 0  -0.5 -0.1700000000009154 0  -0.5 -0.1600000000009431 0  -0.5 -0.1500000000009709 0  -0.5 -0.1400000000009986 0  -0.5 -0.1300000000010264 0  -0.5 -0.1200000000010541 0  -0.5 -0.1100000000010818 0  -0.5 -0.1000000000011096 0  -0.5 -0.09000000000113734 0  -0.5 -0.08000000000116503 0  -0.5 -0.07000000000119283 0  -0.5 -0.06000000000122058 0  -0.5 -0.05000000000124827 0  -0.5 -0.04000000000127607 0  -0.5 -0.03000000000130376 0  -0.5 -0.02000000000133151 0  -0.5 -0.01000000000135925 0  -0.5 -1.376121439022882e-12 0  -0.5 0.009999999998640763 0  -0.5 0.01999999999866864 0  -0.5 0.02999999999869629 0  -0.5 0.03999999999872406 0  -0.5 0.04999999999875182 0  -0.5 0.05999999999877947 0  -0.5 0.06999999999880724 0  -0.5 0.079999999998835 0  -0.5 0.08999999999886266 0  -0.5 0.09999999999889042
[...]
<PointData  Vectors="f_27-0"> 
<DataArray  type="Float64"  Name="f_27-0"  NumberOfComponents="3" format="ascii">7.4292694368275551e-04 4.4350211709493374e-02 0.0000000000000000e+00  -1.0804117194234239e-03 4.4289575338283940e-02 0.0000000000000000e+00  2.4892158073196082e-04 4.0988797716713980e-02 0.0000000000000000e+00  -5.7914149426028803e-05 4.0947772643012158e-02 0.0000000000000000e+00  -1.5873418382556666e-03 6.5066767328965588e-03 0.0000000000000000e+00  1.6036462597420833e-03 6.4451289781073725e-03 0.0000000000000000e+00  -1.3242033763707017e-03 6.5410096054925888e-03 0.0000000000000000e+00  1.4050120169578214e-03 6.4111522279190749e-03 0.0000000000000000e+00  1.8215650222137914e-03 4.3713611042219672e-02 0.0000000000000000e+00  2.8648886503549165e-03 4.3012464780792833e-02 0.0000000000000000e+00  3.8685821927300790e-03 4.2250511023198024e-02 0.0000000000000000e+00  4.8299084856191585e-03 4.1431003075623245e-02 0.0000000000000000e+00  5.7443242871781401e-03 4.0558398502711368e-02 0.0000000000000000e+00  6.6101823907915571e-03 3.9636109307762298e-02 0.0000000000000000e+00  7.4234789214697007e-03 3.8669941825507842e-02 0.0000000000000000e+00  8.1831443075455132e-03 3.7663860888102196e-02 0.0000000000000000e+00  8.8865252180342098e-03 3.6622658150268224e-02 0.0000000000000000e+00  9.5314530135548713e-03 3.5551439214898589e-02 0.0000000000000000e+00  1.0118218515942858e-02 3.4455540299774046e-02 0.0000000000000000e+00  1.0645608729826093e-02 3.3339429930584183e-02 0.0000000000000000e+00  1.1113096595492316e-02 3.2208415127253212e-02 0.0000000000000000e+00  1.1521315163509446e-02 3.1066194406766889e-02 0.0000000000000000e+00  1.1869361588897129e-02 2.9919546863950666e-02 0.0000000000000000e+00  1.2159228599677739e-02 2.8771438409987464e-02 0.0000000000000000e+00  1.2391503991313849e-02 2.7625946870630556e-02 0.0000000000000000e+00  1.2567041315721129e-02 2.6488364254809486e-02 0.0000000000000000e+00  1.2687710094778041e-02 2.5362510428457739e-02 0.0000000000000000e+00  1.2755302936523150e-02 2.4250867584334625e-02 0.0000000000000000e+00  1.2771181737176909e-02 2.3157514527862588e-02 0.0000000000000000e+00  1.2737776019435851e-02 2.2085016246336086e-02 0.0000000000000000e+00  1.2657080925329281e-02 2.1036071288601108e-02 0.0000000000000000e+00  1.2530868924278555e-02 2.0014629074651454e-02 0.0000000000000000e+00  1.2361627638318816e-02 1.9021658270313185e-02 0.0000000000000000e+00  1.2151937207911885e-02 1.8059420880662057e-02 0.0000000000000000e+00  1.1903536838812684e-02 1.7129806720900653e-02 0.0000000000000000e+00  1.1618869233262059e-02 1.6234896211098492e-02 0.0000000000000000e+00  1.1300386668512012e-02 1.5374520810310455e-02 0.0000000000000000e+00  1.0950311886827872e-02 1.4551132653169568e-02 0.0000000000000000e+00  1.0570502639069973e-02 1.3765309025988957e-02 0.0000000000000000e+00  1.0163397866497777e-02 1.3017864843352010e-02 0.0000000000000000e+00  9.7308717569784178e-03 1.2310010366479263e-02 0.0000000000000000e+00  9.2751013911297267e-03 1.1641501973379525e-02 0.0000000000000000e+00  8.7975586497548060e-03 1.1012729026105540e-02 0.0000000000000000e+00  8.3003313414698309e-03 1.0423449907782796e-02 0.0000000000000000e+00  7.7853773324233332e-03 9.8755407042895611e-03 0.0000000000000000e+00  7.2537803810090945e-03 9.3677595244043461e-03 0.0000000000000000e+00  6.7076288566528565e-03 8.8999926213998853e-03 0.0000000000000000e+00  6.1482318498476945e-03 8.4734798516051413e-03 0.0000000000000000e+00  5.5774934608670114e-03 8.0874316747258715e-03 0.0000000000000000e+00  4.9964601879202777e-03 7.7413618153366875e-03 0.0000000000000000e+00  4.4060109611682788e-03 7.4362448431661843e-03 0.0000000000000000e+00  3.8077914209646638e-03 7.1710797937945174e-03 0.0000000000000000e+00  3.2028242953487402e-03 6.9463641955414572e-03 0.0000000000000000e+00  2.5922096743779340e-03 6.7612616574549960e-03 0.0000000000000000e+00  1.9775800030658419e-03 6.6166636990305150e-03 0.0000000000000000e+00  1.3595087569333614e-03 6.5117150290311277e-03 0.0000000000000000e+00  7.3967873380519317e-04 6.4464203790003151e-03 0.0000000000000000e+00  1.1800281912909851e-04 6.4215252862788843e-03 0.0000000000000000e+00  -5.0373103391046449e-04 6.4361597656278254e-03 0.0000000000000000e+00  -1.1242681899063709e-03 6.4899439885638573e-03 0.0000000000000000e+00  -1.7429892117524818e-03 6.5835747904847653e-03 0.0000000000000000e+00  -2.3586317411057821e-03 6.7174727154800983e-03 0.0000000000000000e+00  -2.9704102085882558e-03 6.8916150920029619e-03 0.0000000000000000e+00  -3.5769519055778337e-03 7.1054775937604130e-03 0.0000000000000000e+00  -4.1772446542420712e-03 7.3594136802723198e-03 0.0000000000000000e+00  -4.7699210877445155e-03 7.6534962073947161e-03 0.0000000000000000e+00  -5.3542594894474462e-03 7.9882916482036884e-03 0.0000000000000000e+00  -5.9287011278432748e-03 8.3628566102661034e-03 0.0000000000000000e+00  -6.4915989745372160e-03 8.7785023873043280e-03 0.0000000000000000e+00  -7.0422129133592120e-03 9.2342893426741665e-03 0.0000000000000000e+00  -7.5785008368707595e-03 9.7303502317639835e-03 0.0000000000000000e+00  -8.0990052721757085e-03 1.0266968271913124e-02 0.0000000000000000e+00  -8.6024220879121448e-03 1.0843896203294422e-02 0.0000000000000000e+00  -9.0865869740986184e-03 1.1460832158288196e-02 0.0000000000000000e+00  -9.5502520603183254e-03 1.2118021719680060e-02 0.0000000000000000e+00  -9.9907838053664016e-03 1.2815016116910372e-02 0.0000000000000000e+00  -1.0407268689760437e-02 1.3550759621242929e-02 0.0000000000000000e+00  -1.0796525522160332e-02 1.4325386240768952e-02 0.0000000000000000e+00  -1.1157231457323948e-02 1.5138716454491555e-02 0.0000000000000000e+00  -1.1487488558385285e-02 1.5987858998315237e-02 0.0000000000000000e+00  -1.1784466969786401e-02 1.6872398283242870e-02 0.0000000000000000e+00  -1.2046504524148488e-02 1.7792352378451847e-02 0.0000000000000000e+00  -1.2270483633633525e-02 1.8745714353497638e-02 0.0000000000000000e+00  -1.2455642341557740e-02 1.9730562604834509e-02 0.0000000000000000e+00  -1.2597845621455831e-02 2.0745380850482206e-02 0.0000000000000000e+00  -1.2696090376733473e-02 2.1786379110688134e-02 0.0000000000000000e+00  -1.2747628615646125e-02 2.2853215348620844e-02 0.0000000000000000e+00  -1.2750450038673294e-02 2.3942463216589060e-02 0.0000000000000000e+00  -1.2702746440255286e-02 2.5050984537194107e-02 0.0000000000000000e+00  -1.2602179792705646e-02 2.6175276402947950e-02 0.0000000000000000e+00  -1.2447293496973204e-02 2.7312403206462246e-02 0.0000000000000000e+00  -1.2235967593797966e-02 2.8459361444796567e-02 0.0000000000000000e+00  -1.1967917321322363e-02 2.9609956645658096e-02 0.0000000000000000e+00  -1.1641336088317323e-02 3.0761431283010537e-02 0.0000000000000000e+00  -1.1255013255015866e-02 3.1909701593382134e-02 0.0000000000000000e+00  -1.0808894388638602e-02 3.3049392620969349e-02 0.0000000000000000e+00  -1.0302724637343223e-02 3.4175653012565477e-02 0.0000000000000000e+00  -9.7367505163631022e-03 3.5283439223938499e-02 0.0000000000000000e+00  -9.1113410337020882e-03 3.6368012627577037e-02 0.0000000000000000e+00  -8.4266587750439111e-03 3.7425167282683178e-02 0.0000000000000000e+00  -7.6849961677015145e-03 3.8448781384571612e-02 0.0000000000000000e+00  -6.8878084154194328e-03 3.9434412228819930e-02 0.0000000000000000e+00  -6.0367004947015530e-03 4.0377608128855887e-02 0.0000000000000000e+00  -5.1355298095303722e-03 4.1271934146082163e-02 0.0000000000000000e+00  -4.1853064680635512e-03 4.2114776248570657e-02 0.0000000000000000e+00  -3.1903188622705559e-03 4.2900833815342973e-02 0.0000000000000000e+00  -2.1542247916314285e-03 4.3626797318288703e-02 0.0000000000000000e+00  -1.3185459720883646e-03 4.5406982084923428e-02 0.0000000000000000e+00  -1.5730861036152464e-03 4.6577226617710521e-02 0.0000000000000000e+00  -1.8441551464577024e-03 4.7806551913022653e-02 0.0000000000000000e+00  -2.1327127970330820e-03 4.9096100405532861e-02 0.0000000000000000e+00  -2.4399970143165906e-03 5.0452123818542680e-02 0.0000000000000000e+00  -2.7695410335512650e-03 5.1876800094030041e-02 0.0000000000000000e+00  -3.1161873120957666e-03 5.3374488397570273e-02 0.0000000000000000e+00  -3.4864032686676505e-03 5.4951292158006308e-02 0.0000000000000000e+00  -3.8807076498469759e-03 5.6610840009639347e-02 0.0000000000000000e+00  -4.2979452572513618e-03 5.8361030899034078e-02 0.0000000000000000e+00  -4.7417335440942624e-03 6.0206788845464966e-02 0.0000000000000000e+00  -5.2137890294534804e-03 6.2153280050758063e-02 0.0000000000000000e+00  -5.7151111726592525e-03 6.4210085866716546e-02 0.0000000000000000e+00  -6.2498988477843543e-03 6.6380925066800683e-02 0.0000000000000000e+00  -6.8163630174003361e-03 6.8677852798359307e-02 0.0000000000000000e+00  -7.4210607178478265e-03 7.1108531051289350e-02 0.0000000000000000e+00  -8.0682411997326803e-03 7.3678484575549333e-02 0.0000000000000000e+00  -8.7540974802848177e-03 7.6401819390475481e-02 0.0000000000000000e+00  -9.4857923451349812e-03 7.9285129600550175e-02 0.0000000000000000e+00  -1.0269794085947503e-02 8.2334928248033290e-02 0.0000000000000000e+00  -1.1105229091248814e-02 8.5565775955624368e-02 0.0000000000000000e+00  -1.1998008795361453e-02 8.8980461796505234e-02 0.0000000000000000e+00  -1.2947817060273337e-02 9.2587341814509644e-02 0.0000000000000000e+00  -1.3948504214651066e-02 9.6388687731918499e-02 0.0000000000000000e+00  -1.4992791061789079e-02 1.0039199589410586e-01 0.0000000000000000e+00  -1.6073713454667810e-02 1.0457783715540341e-01 0.0000000000000000e+00  -1.7152795558248581e-02 1.0894545187834213e-01 0.0000000000000000e+00  -1.8202757508702254e-02 1.1346438530855536e-01 0.0000000000000000e+00  -1.9138953625834006e-02 1.1809196600618582e-01 0.0000000000000000e+00  -1.9872778656078258e-02 1.2278072977309581e-01 0.0000000000000000e+00  -2.0267026672989151e-02 1.2745260447621884e-01 0.0000000000000000e+00  -2.0128513948191849e-02 1.3199128698103260e-01 0.0000000000000000e+00  -1.9200944932947550e-02 1.3626037930202048e-01 0.0000000000000000e+00  -1.7190650605670595e-02 1.4006952256917832e-01 0.0000000000000000e+00  -1.3712303947842862e-02 1.4317863209191167e-01 0.0000000000000000e+00  -8.3200711954815165e-03 1.4531286368894780e-01 0.0000000000000000e+00  -5.7376680942823502e-04 1.4610227106473886e-01 0.0000000000000000e+00  9.9242760177970391e-03 1.4522537598122490e-01 0.0000000000000000e+00  2.3293455289939938e-02 1.4220386195218712e-01 0.0000000000000000e+00  3.9192089402315888e-02 1.3680880726328604e-01 0.0000000000000000e+00  5.6384825841788069e-02 1.2866696462286878e-01 0.0000000000000000e+00  7.2292668505594029e-02 1.1794451508075862e-01 0.0000000000000000e+00  8.2460485612607701e-02 1.0473520841767993e-01 0.0000000000000000e+00  8.1983551027642182e-02 8.9918897389688029e-02 0.0000000000000000e+00  6.5165630400520508e-02 7.4595779289014466e-02 0.0000000000000000e+00  2.9807524445905252e-02 6.1297915921507913e-02 0.0000000000000000e+00  -1.9503854647227408e-02 5.5437965018908061e-02 0.0000000000000000e+00  -6.5751087482999293e-02 6.1594369429455245e-02 0.0000000000000000e+00  -8.8876626981756912e-02 8.1677991294230728e-02 0.0000000000000000e+00  -8.3803835256109793e-02 1.0764771152597638e-01 0.0000000000000000e+00  -6.6333432905035766e-02 1.2961687714568246e-01 0.0000000000000000e+00  -4.8921432298224522e-02 1.4508821292825028e-01 0.0000000000000000e+00  -3.4668174255367577e-02 1.5484742466997867e-01 0.0000000000000000e+00  -2.3225798621911396e-02 1.6054842470839764e-01 0.0000000000000000e+00  -1.4043894977120901e-02 1.6334027521823263e-01 0.0000000000000000e+00  -6.6203898913623918e-03 1.6397107660580773e-01 0.0000000000000000e+00  -6.7715358273058059e-04 1.6296154930596904e-01 0.0000000000000000e+00  4.0323041071683996e-03 1.6069926922639241e-01 0.0000000000000000e+00  7.6634674667816717e-03 1.5751585254979017e-01 0.0000000000000000e+00  1.0400139488483203e-02 1.5363903455172537e-01 0.0000000000000000e+00  1.2378406526150010e-02 1.4927431614517994e-01 0.0000000000000000e+00  1.3727969894374104e-02 1.4458254323391170e-01 0.0000000000000000e+00  1.4563682043215875e-02 1.3970041131464600e-01 0.0000000000000000e+00  1.4986477269767496e-02 1.3472482953439355e-01 0.0000000000000000e+00  1.5087166549691085e-02 1.2974353924494933e-01 0.0000000000000000e+00  1.4943549831332777e-02 1.2481658695793178e-01 0.0000000000000000e+00  1.4613538015807609e-02 1.1999737693649173e-01 0.0000000000000000e+00  1.4155665747853605e-02 1.1530579843900310e-01 0.0000000000000000e+00  1.3607976582764440e-02 1.1078331670758504e-01 0.0000000000000000e+00  1.3004736137920719e-02 1.0643109863476788e-01 0.0000000000000000e+00  1.2366935959052628e-02 1.0226705973298829e-01 0.0000000000000000e+00  1.1710935640457519e-02 9.8293753483981228e-02 0.0000000000000000e+00  1.1049322692049626e-02 9.4516109233217516e-02 0.0000000000000000e+00  1.0396465303895997e-02 9.0922091284670506e-02 0.0000000000000000e+00  9.7602825515993013e-03 8.7506003806280527e-02 0.0000000000000000e+00  9.1393849857801680e-03 8.4273337483478206e-02 0.0000000000000000e+00  8.5435956304164701e-03 8.1202485970387428e-02 0.0000000000000000e+00  7.9626518196114337e-03 7.8296131115263068e-02 0.0000000000000000e+00  7.4067759695511859e-03 7.5539849051469474e-02 0.0000000000000000e+00  6.8742684848823619e-03 7.2928831660180715e-02 0.0000000000000000e+00  6.3632553935423376e-03 7.0454264424249527e-02 0.0000000000000000e+00  5.8744988451083884e-03 6.8106737727757216e-02 0.0000000000000000e+00  5.4083514809944401e-03 6.5881737681908553e-02 0.0000000000000000e+00  4.9645500952409027e-03 6.3768031228458935e-02 0.0000000000000000e+00  4.5380779469053282e-03 6.1763790903957901e-02 0.0000000000000000e+00  4.1325125460507537e-03 5.9858094361664720e-02 0.0000000000000000e+00  3.7477484877343772e-03 5.8047941195155384e-02 0.0000000000000000e+00  3.3818533774216818e-03 5.6325355090375534e-02 0.0000000000000000e+00  3.0336162167254477e-03 5.4687879604460685e-02 0.0000000000000000e+00  2.7012017928465209e-03 5.3128219078649903e-02 0.0000000000000000e+00  2.3867688485259921e-03 5.1643232830020966e-02 0.0000000000000000e+00  2.0901136517375019e-03 5.0227002974035317e-02 0.0000000000000000e+00  1.8091205317207547e-03 4.8877336082483264e-02 0.0000000000000000e+00  1.5436131045376115e-03 4.7589701592372968e-02 0.0000000000000000e+00  1.2936873616549204e-03 4.6360837763467874e-02 0.0000000000000000e+00  1.0570316827604764e-03 4.5187918806471036e-02 0.0000000000000000e+00  8.3438744648752546e-04 4.4066478921202822e-02 0.0000000000000000e+00  6.2588514631229937e-04 4.2994170749375893e-02 0.0000000000000000e+00  4.3041166539129112e-04 4.1969180067117258e-02 0.0000000000000000e+00  1.1926563175617862e-03 4.0418952975410628e-02 0.0000000000000000e+00  2.1056229214167577e-03 3.9794090383779346e-02 0.0000000000000000e+00  2.9851253911436608e-03 3.9117219605186236e-02 0.0000000000000000e+00  3.8277764762134864e-03 3.8392311872818066e-02 0.0000000000000000e+00  4.6313592532674450e-03 3.7621450796550451e-02 0.0000000000000000e+00  5.3932431085317034e-03 3.6809457675105982e-02 0.0000000000000000e+00  6.1111489710346054e-03 3.5958539318493493e-02 0.0000000000000000e+00  6.7835865191814152e-03 3.5073747546310652e-02 0.0000000000000000e+00  7.4077934715458321e-03 3.4158798763906692e-02 0.0000000000000000e+00  7.9842738288434974e-03 3.3216163571540419e-02 0.0000000000000000e+00  8.5108469179808847e-03 3.2251392281111749e-02 0.0000000000000000e+00  8.9872079889207479e-03 3.1269322377453321e-02 0.0000000000000000e+00  9.4123267037552437e-03 3.0272450241869673e-02 0.0000000000000000e+00  9.7861543274531029e-03 2.9265616166733240e-02 0.0000000000000000e+00  1.0109726266596971e-02 2.8251457180472121e-02 0.0000000000000000e+00  1.0382853820503872e-02 2.7235203355127396e-02 0.0000000000000000e+00  1.0605789069490910e-02 2.6219981474836316e-02 0.0000000000000000e+00  1.0780420928894195e-02 2.5209522480831650e-02 0.0000000000000000e+00  1.0906643288467209e-02 2.4206632811102653e-02 0.0000000000000000e+00  1.0986343727079018e-02 2.3214984822126399e-02 0.0000000000000000e+00  1.1020725449967354e-02 2.2237299418811036e-02 0.0000000000000000e+00  1.1011199185756937e-02 2.1276892094498144e-02 0.0000000000000000e+00  1.0959174387040605e-02 2.0336283272350743e-02 0.0000000000000000e+00  1.0866931888159665e-02 1.9416766772972691e-02 0.0000000000000000e+00  1.0735738193408851e-02 1.8521456169428997e-02 0.0000000000000000e+00  1.0567472896338460e-02 1.7652059778879497e-02 0.0000000000000000e+00  1.0364096015203762e-02 1.6810737472023839e-02 0.0000000000000000e+00  1.0127406347551835e-02 1.5997815961568608e-02 0.0000000000000000e+00  9.8591913274211958e-03 1.5216331657710044e-02 0.0000000000000000e+00  9.5614263077611374e-03 1.4466847692383702e-02 0.0000000000000000e+00  9.2360626967922296e-03 1.3750087226563094e-02 0.0000000000000000e+00  8.8849331845383822e-03 1.3067139865975819e-02 0.0000000000000000e+00  8.5097714577479309e-03 1.2418767241261446e-02 0.0000000000000000e+00  8.1120364605587695e-03 1.1806252304029013e-02 0.0000000000000000e+00  7.6935952145362292e-03 1.1229160571554949e-02 0.0000000000000000e+00  7.2564907647127159e-03 1.0688972554508744e-02 0.0000000000000000e+00  6.8015597311479005e-03 1.0185436754333310e-02 0.0000000000000000e+00  6.3308068481797283e-03 9.7187204311282600e-03 0.0000000000000000e+00  5.8455479019350687e-03 9.2891281929717816e-03 0.0000000000000000e+00  5.3475487925792953e-03 8.8967194159980858e-03 0.0000000000000000e+00  4.8382316438645764e-03 8.5423652506310468e-03 0.0000000000000000e+00  4.3185587986474825e-03 8.2266113767503462e-03 0.0000000000000000e+00  3.7898991599961893e-03 7.9474443560787929e-03 0.0000000000000000e+00  3.2533041795456772e-03 7.7061405398103381e-03 0.0000000000000000e+00  2.7100528367434151e-03 7.5026856501572200e-03 0.0000000000000000e+00  2.1616050004069128e-03 7.3366794878952091e-03 0.0000000000000000e+00  1.6087921177937565e-03 7.2080029160500343e-03 0.0000000000000000e+00  1.0532068031071766e-03 7.1173254279659820e-03 0.0000000000000000e+00  4.9572774957444272e-04 7.0650808970980439e-03 0.0000000000000000e+00  -6.3005928595722001e-05 7.0502857985454484e-03 0.0000000000000000e+00  -6.2158294312818945e-04 7.0724619883573659e-03 0.0000000000000000e+00  -1.1788335460582659e-03 7.1327487613848861e-03 0.0000000000000000e+00  -1.7333704248533965e-03 7.2311654541008510e-03 0.0000000000000000e+00  -2.2844017297397740e-03 7.3672052124655000e-03 0.0000000000000000e+00  -2.8308610477226579e-03 7.5406149956266117e-03 0.0000000000000000e+00  -3.3719247394332513e-03 7.7515515605383455e-03 0.0000000000000000e+00  -3.9058024094986753e-03 7.9997687775819389e-03 0.0000000000000000e+00  -4.4316198084670385e-03 8.2861719194762540e-03 0.0000000000000000e+00  -4.9480516556910372e-03 8.6103782394463136e-03 0.0000000000000000e+00  -5.4537229920933400e-03 8.9723692408445656e-03 0.0000000000000000e+00  -5.9474966087544471e-03 9.3708964796278462e-03 0.0000000000000000e+00  -6.4275936083076539e-03 9.8073541010416359e-03 0.0000000000000000e+00  -6.8934030741027354e-03 1.0280594291290916e-02 0.0000000000000000e+00  -7.3426084296196866e-03 1.0790647317398039e-02 0.0000000000000000e+00  -7.7739571619838185e-03 1.1337645652202936e-02 0.0000000000000000e+00  -8.1859797340584316e-03 1.1920803668669147e-02 0.0000000000000000e+00  -8.5764887806628210e-03 1.2539357616226404e-02 0.0000000000000000e+00  -8.9446409941761548e-03 1.3192664719259917e-02 0.0000000000000000e+00  -9.2877205548510863e-03 1.3880433312460395e-02 0.0000000000000000e+00  -9.6050654013059636e-03 1.4601489222422034e-02 0.0000000000000000e+00  -9.8941313663207554e-03 1.5354944295897302e-02 0.0000000000000000e+00  -1.0153105440240643e-02 1.6140480816605410e-02 0.0000000000000000e+00  -1.0380235603470090e-02 1.6956355765647437e-02 0.0000000000000000e+00  -1.0573979576366290e-02 1.7800053372243704e-02 0.0000000000000000e+00  -1.0732087050095908e-02 1.8671667551454309e-02 0.0000000000000000e+00  -1.0852980380165375e-02 1.9568871294252471e-02 0.0000000000000000e+00  -1.0935189159842394e