<?xml version="1.0"?>
<VTKFile type="UnstructuredGrid"  version="0.1"  >
<UnstructuredGrid>
<Piece  NumberOfPoints="16275" NumberOfCells="32468">
<Points>
<DataArray  type="Float64"  NumberOfComponents="3"  format="ascii">-0.5 0.5 0  0.5 0.5 0  0.5 -0.5 0  -0.5 -0.5 0  -1 1 0  1 1 0  1 -1 0  -1 -1 0  -0.4900000000000277 0.5 0  -0.4800000000000555 0.5 0  -0.4700000000000832 0.5 0  -0.4600000000001109 0.5 0  -0.4500000000001387 0.5 0  -0.4400000000001664 0.5 0  -0.4300000000001942 0.5 0  -0.4200000000002219 0.5 0  -0.4100000000002497 0.5 0  -0.4000000000002774 0.5 0  -0.3900000000003052 0.5 0  -0.3800000000003328 0.5 0  -0.3700000000003606 0.5 0  -0.3600000000003883 0.5 0  -0.3500000000004161 0.5 0  -0.3400000000004438 0.5 0  -0.3300000000004716 0.5 0  -0.3200000000004993 0.5 0  -0.3100000000005271 0.5 0  -0.3000000000005548 0.5 0  -0.2900000000005825 0.5 0  -0.2800000000006103 0.5 0  -0.2700000000006381 0.5 0  -0.2600000000006658 0.5 0  -0.2500000000006935 0.5 0  -0.2400000000007212 0.5 0  -0.230000000000749 0.5 0  -0.2200000000007767 0.5 0  -0.2100000000008044 0.5 0  -0.2000000000008322 0.5 0  -0.19000000000086 0.5 0  -0.1800000000008877 0.5 0  -0.1700000000009154 0.5 0  -0.1600000000009431 0.5 0  -0.1500000000009709 0.5 0  -0.1400000000009986 0.5 0  -0.1300000000010264 0.5 0  -0.1200000000010541 0.5 0  -0.1100000000010818 0.5 0  -0.1000000000011096 0.5 0  -0.09000000000113734 0.5 0  -0.08000000000116503 0.5 0  -0.07000000000119283 0.5 0  -0.06000000000122058 0.5 0  -0.05000000000124827 0.5 0  -0.04000000000127607 0.5 0  -0.03000000000130376 0.5 0  -0.02000000000133151 0.5 0  -0.01000000000135925 0.5 0  -1.376121439022882e-12 0.5 0  0.009999999998640763 0.5 0  0.01999999999866864 0.5 0  0.02999999999869629 0.5 0  0.03999999999872406 0.5 0  0.04999999999875182 0.5 0  0.05999999999877947 0.5 0  0.06999999999880724 0.5 0  0.079999999998835 0.5 0  0.08999999999886266 0.5 0  0.09999999999889042 0.5 0  0.1099999999989182 0.5 0  0.1199999999989459 0.5 0  0.1299999999989737 0.5 0  0.1399999999990014 0.5 0  0.1499999999990291 0.5 0  0.1599999999990568 0.5 0  0.1699999999990847 0.5 0  0.1799999999991124 0.5 0  0.1899999999991401 0.5 0  0.1999999999991678 0.5 0  0.2099999999991955 0.5 0  0.2199999999992234 0.5 0  0.2299999999992511 0.5 0  0.2399999999992788 0.5 0  0.2499999999993066 0.5 0  0.2599999999993342 0.5 0  0.269999999999362 0.5 0  0.2799999999993897 0.5 0  0.2899999999994175 0.5 0  0.2999999999994452 0.5 0  0.3099999999994729 0.5 0  0.3199999999995007 0.5 0  0.3299999999995284 0.5 0  0.3399999999995562 0.5 0  0.3499999999995839 0.5 0  0.3599999999996116 0.5 0  0.3699999999996393 0.5 0  0.379999999999667 0.5 0  0.3899999999996949 0.5 0  0.3999999999997226 0.5 0  0.4099999999997503 0.5 0  0.419999999999778 0.5 0  0.4299999999998058 0.5 0  0.4399999999998336 0.5 0  0.4499999999998613 0.5 0  0.4599999999998891 0.5 0  0.4699999999999167 0.5 0  0.4799999999999445 0.5 0  0.4899999999999722 0.5 0  0.5 0.4900000000000277 0  0.5 0.4800000000000555 0  0.5 0.4700000000000832 0  0.5 0.4600000000001109 0  0.5 0.4500000000001387 0  0.5 0.4400000000001664 0  0.5 0.4300000000001942 0  0.5 0.4200000000002219 0  0.5 0.4100000000002497 0  0.5 0.4000000000002774 0  0.5 0.3900000000003052 0  0.5 0.3800000000003328 0  0.5 0.3700000000003606 0  0.5 0.3600000000003883 0  0.5 0.3500000000004161 0  0.5 0.3400000000004438 0  0.5 0.3300000000004716 0  0.5 0.3200000000004993 0  0.5 0.3100000000005271 0  0.5 0.3000000000005548 0  0.5 0.2900000000005825 0  0.5 0.2800000000006103 0  0.5 0.2700000000006381 0  0.5 0.2600000000006658 0  0.5 0.2500000000006935 0  0.5 0.2400000000007212 0  0.5 0.230000000000749 0  0.5 0.2200000000007767 0  0.5 0.2100000000008044 0  0.5 0.2000000000008322 0  0.5 0.19000000000086 0  0.5 0.1800000000008877 0  0.5 0.1700000000009154 0  0.5 0.1600000000009431 0  0.5 0.1500000000009709 0  0.5 0.1400000000009986 0  0.5 0.1300000000010264 0  0.5 0.1200000000010541 0  0.5 0.1100000000010818 0  0.5 0.1000000000011096 0  0.5 0.09000000000113734 0  0.5 0.08000000000116503 0  0.5 0.07000000000119283 0  0.5 0.06000000000122058 0  0.5 0.05000000000124827 0  0.5 0.04000000000127607 0  0.5 0.03000000000130376 0  0.5 0.02000000000133151 0  0.5 0.01000000000135925 0  0.5 1.376121439022882e-12 0  0.5 -0.009999999998640763 0  0.5 -0.01999999999866864 0  0.5 -0.02999999999869629 0  0.5 -0.03999999999872406 0  0.5 -0.04999999999875182 0  0.5 -0.05999999999877947 0  0.5 -0.06999999999880724 0  0.5 -0.079999999998835 0  0.5 -0.08999999999886266 0  0.5 -0.09999999999889042 0  0.5 -0.1099999999989182 0  0.5 -0.1199999999989459 0  0.5 -0.1299999999989737 0  0.5 -0.1399999999990014 0  0.5 -0.1499999999990291 0  0.5 -0.1599999999990568 0  0.5 -0.1699999999990847 0  0.5 -0.1799999999991124 0  0.5 -0.1899999999991401 0  0.5 -0.1999999999991678 0  0.5 -0.2099999999991955 0  0.5 -0.2199999999992234 0  0.5 -0.2299999999992511 0  0.5 -0.2399999999992788 0  0.5 -0.2499999999993066 0  0.5 -0.2599999999993342 0  0.5 -0.269999999999362 0  0.5 -0.2799999999993897 0  0.5 -0.2899999999994175 0  0.5 -0.2999999999994452 0  0.5 -0.3099999999994729 0  0.5 -0.3199999999995007 0  0.5 -0.3299999999995284 0  0.5 -0.3399999999995562 0  0.5 -0.3499999999995839 0  0.5 -0.3599999999996116 0  0.5 -0.3699999999996393 0  0.5 -0.379999999999667 0  0.5 -0.3899999999996949 0  0.5 -0.3999999999997226 0  0.5 -0.4099999999997503 0  0.5 -0.419999999999778 0  0.5 -0.4299999999998058 0  0.5 -0.4399999999998336 0  0.5 -0.4499999999998613 0  0.5 -0.4599999999998891 0  0.5 -0.4699999999999167 0  0.5 -0.4799999999999445 0  0.5 -0.4899999999999722 0  0.4900000000000277 -0.5 0  0.4800000000000555 -0.5 0  0.4700000000000832 -0.5 0  0.4600000000001109 -0.5 0  0.4500000000001387 -0.5 0  0.4400000000001664 -0.5 0  0.4300000000001942 -0.5 0  0.4200000000002219 -0.5 0  0.4100000000002497 -0.5 0  0.4000000000002774 -0.5 0  0.3900000000003052 -0.5 0  0.3800000000003328 -0.5 0  0.3700000000003606 -0.5 0  0.3600000000003883 -0.5 0  0.3500000000004161 -0.5 0  0.3400000000004438 -0.5 0  0.3300000000004716 -0.5 0  0.3200000000004993 -0.5 0  0.3100000000005271 -0.5 0  0.3000000000005548 -0.5 0  0.2900000000005825 -0.5 0  0.2800000000006103 -0.5 0  0.2700000000006381 -0.5 0  0.2600000000006658 -0.5 0  0.2500000000006935 -0.5 0  0.2400000000007212 -0.5 0  0.230000000000749 -0.5 0  0.2200000000007767 -0.5 0  0.2100000000008044 -0.5 0  0.2000000000008322 -0.5 0  0.19000000000086 -0.5 0  0.1800000000008877 -0.5 0  0.1700000000009154 -0.5 0  0.1600000000009431 -0.5 0  0.1500000000009709 -0.5 0  0.1400000000009986 -0.5 0  0.1300000000010264 -0.5 0  0.1200000000010541 -0.5 0  0.1100000000010818 -0.5 0  0.1000000000011096 -0.5 0  0.09000000000113734 -0.5 0  0.08000000000116503 -0.5 0  0.07000000000119283 -0.5 0  0.06000000000122058 -0.5 0  0.05000000000124827 -0.5 0  0.04000000000127607 -0.5 0  0.03000000000130376 -0.5 0  0.02000000000133151 -0.5 0  0.01000000000135925 -0.5 0  1.376121439022882e-12 -0.5 0  -0.009999999998640763 -0.5 0  -0.01999999999866864 -0.5 0  -0.02999999999869629 -0.5 0  -0.03999999999872406 -0.5 0  -0.04999999999875182 -0.5 0  -0.05999999999877947 -0.5 0  -0.06999999999880724 -0.5 0  -0.079999999998835 -0.5 0  -0.08999999999886266 -0.5 0  -0.09999999999889042 -0.5 0  -0.1099999999989182 -0.5 0  -0.1199999999989459 -0.5 0  -0.1299999999989737 -0.5 0  -0.1399999999990014 -0.5 0  -0.1499999999990291 -0.5 0  -0.1599999999990568 -0.5 0  -0.1699999999990847 -0.5 0  -0.1799999999991124 -0.5 0  -0.1899999999991401 -0.5 0  -0.1999999999991678 -0.5 0  -0.2099999999991955 -0.5 0  -0.2199999999992234 -0.5 0  -0.2299999999992511 -0.5 0  -0.2399999999992788 -0.5 0  -0.2499999999993066 -0.5 0  -0.2599999999993342 -0.5 0  -0.269999999999362 -0.5 0  -0.2799999999993897 -0.5 0  -0.2899999999994175 -0.5 0  -0.2999999999994452 -0.5 0  -0.3099999999994729 -0.5 0  -0.3199999999995007 -0.5 0  -0.3299999999995284 -0.5 0  -0.3399999999995562 -0.5 0  -0.3499999999995839 -0.5 0  -0.3599999999996116 -0.5 0  -0.3699999999996393 -0.5 0  -0.379999999999667 -0.5 0  -0.3899999999996949 -0.5 0  -0.3999999999997226 -0.5 0  -0.4099999999997503 -0.5 0  -0.419999999999778 -0.5 0  -0.4299999999998058 -0.5 0  -0.4399999999998336 -0.5 0  -0.4499999999998613 -0.5 0  -0.4599999999998891 -0.5 0  -0.4699999999999167 -0.5 0  -0.4799999999999445 -0.5 0  -0.4899999999999722 -0.5 0  -0.5 -0.4900000000000277 0  -0.5 -0.4800000000000555 0  -0.5 -0.4700000000000832 0  -0.5 -0.4600000000001109 0  -0.5 -0.4500000000001387 0  -0.5 -0.4400000000001664 0  -0.5 -0.4300000000001942 0  -0.5 -0.4200000000002219 0  -0.5 -0.4100000000002497 0  -0.5 -0.4000000000002774 0  -0.5 -0.3900000000003052 0  -0.5 -0.3800000000003328 0  -0.5 -0.3700000000003606 0  -0.5 -0.3600000000003883 0  -0.5 -0.3500000000004161 0  -0.5 -0.3400000000004438 0  -0.5 -0.3300000000004716 0  -0.5 -0.3200000000004993 0  -0.5 -0.3100000000005271 0  -0.5 -0.3000000000005548 0  -0.5 -0.2900000000005825 0  -0.5 -0.2800000000006103 0  -0.5 -0.2700000000006381 0  -0.5 -0.2600000000006658 0  -0.5 -0.2500000000006935 0  -0.5 -0.2400000000007212 0  -0.5 -0.230000000000749 0  -0.5 -0.2200000000007767 0  -0.5 -0.2100000000008044 0  -0.5 -0.2000000000008322 0  -0.5 -0.19000000000086 0  -0.5 -0.1800000000008877 0  -0.5 -0.1700000000009154 0  -0.5 -0.1600000000009431 0  -0.5 -0.1500000000009709 0  -0.5 -0.1400000000009986 0  -0.5 -0.1300000000010264 0  -0.5 -0.1200000000010541 0  -0.5 -0.1100000000010818 0  -0.5 -0.1000000000011096 0  -0.5 -0.09000000000113734 0  -0.5 -0.08000000000116503 0  -0.5 -0.07000000000119283 0  -0.5 -0.06000000000122058 0  -0.5 -0.05000000000124827 0  -0.5 -0.04000000000127607 0  -0.5 -0.03000000000130376 0  -0.5 -0.02000000000133151 0  -0.5 -0.01000000000135925 0  -0.5 -1.376121439022882e-12 0  -0.5 0.009999999998640763 0  -0.5 0.01999999999866864 0  -0.5 0.02999999999869629 0  -0.5 0.03999999999872406 0  -0.5 0.04999999999875182 0  -0.5 0.05999999999877947 0  -0.5 0.06999999999880724 0  -0.5 0.079999999998835 0  -0.5 0.08999999999886266 0  -0.5 0.09999999999889042
[...]
<PointData  Vectors="f_27-0"> 
<DataArray  type="Float64"  Name="f_27-0"  NumberOfComponents="3" format="ascii">1.3371033862968665e-03 4.7461994140626212e-02 0.0000000000000000e+00  -1.8509440930213142e-03 4.7251132204559218e-02 0.0000000000000000e+00  -2.7318939602654447e-04 3.8674697257028552e-02 0.0000000000000000e+00  3.9710914682724029e-04 3.8589106026279088e-02 0.0000000000000000e+00  -1.5719367077486246e-03 6.3437713619893454e-03 0.0000000000000000e+00  1.5457676980136954e-03 6.3366432852864944e-03 0.0000000000000000e+00  -8.8353393373451867e-04 6.1723736053177821e-03 0.0000000000000000e+00  8.8128251559987892e-04 6.1818244945604558e-03 0.0000000000000000e+00  2.5493268596796510e-03 4.6749313125574607e-02 0.0000000000000000e+00  3.7205315835771194e-03 4.5961362892517094e-02 0.0000000000000000e+00  4.8448777759863533e-03 4.5102827965379011e-02 0.0000000000000000e+00  5.9191250585629200e-03 4.4177566773254316e-02 0.0000000000000000e+00  6.9377936424826359e-03 4.3191612819907445e-02 0.0000000000000000e+00  7.8987412841787508e-03 4.2148915772632592e-02 0.0000000000000000e+00  8.7972944770829484e-03 4.1056986275151662e-02 0.0000000000000000e+00  9.6324121096587577e-03 3.9920185101230125e-02 0.0000000000000000e+00  1.0401401829765894e-02 3.8744806322729974e-02 0.0000000000000000e+00  1.1101505042013524e-02 3.7537952438703143e-02 0.0000000000000000e+00  1.1733327808092725e-02 3.6305232571099723e-02 0.0000000000000000e+00  1.2295925039596700e-02 3.5051727535191271e-02 0.0000000000000000e+00  1.2789149678966301e-02 3.3784266561347059e-02 0.0000000000000000e+00  1.3214077014359881e-02 3.2507174895403952e-02 0.0000000000000000e+00  1.3569906278930727e-02 3.1228453690019514e-02 0.0000000000000000e+00  1.3859419001114632e-02 2.9951283991337101e-02 0.0000000000000000e+00  1.4083705954648260e-02 2.8680546373324338e-02 0.0000000000000000e+00  1.4243988121363399e-02 2.7422144159410584e-02 0.0000000000000000e+00  1.4342964073976248e-02 2.6180139841077001e-02 0.0000000000000000e+00  1.4383001853279610e-02 2.4957268471989348e-02 0.0000000000000000e+00  1.4365970586037240e-02 2.3758168022537617e-02 0.0000000000000000e+00  1.4294976391715293e-02 2.2585252287453821e-02 0.0000000000000000e+00  1.4172575778637979e-02 2.1441337880878659e-02 0.0000000000000000e+00  1.4001035725987506e-02 2.0330914144039137e-02 0.0000000000000000e+00  1.3783420532127288e-02 1.9254392675641364e-02 0.0000000000000000e+00  1.3522778809104286e-02 1.8214167076981314e-02 0.0000000000000000e+00  1.3221319118808982e-02 1.7211837664524204e-02 0.0000000000000000e+00  1.2881858716891497e-02 1.6249796510149649e-02 0.0000000000000000e+00  1.2507313638741363e-02 1.5327352582207587e-02 0.0000000000000000e+00  1.2100174153300865e-02 1.4446552833136858e-02 0.0000000000000000e+00  1.1662626203217489e-02 1.3608218158815764e-02 0.0000000000000000e+00  1.1197201074710108e-02 1.2812879463103147e-02 0.0000000000000000e+00  1.0706218532972463e-02 1.2061291206795026e-02 0.0000000000000000e+00  1.0191963192896974e-02 1.1352866196385774e-02 0.0000000000000000e+00  9.6562056426363879e-03 1.0688115386341649e-02 0.0000000000000000e+00  9.1009987626744972e-03 1.0066668714394779e-02 0.0000000000000000e+00  8.5284068281345146e-03 9.4894688672398936e-03 0.0000000000000000e+00  7.9398723077090585e-03 8.9556418740710762e-03 0.0000000000000000e+00  7.3372378393446996e-03 8.4649635449583083e-03 0.0000000000000000e+00  6.7219687267978659e-03 8.0181834465115724e-03 0.0000000000000000e+00  6.0956572327179621e-03 7.6141553586625988e-03 0.0000000000000000e+00  5.4596950819757661e-03 7.2521546700914964e-03 0.0000000000000000e+00  4.8150681728928758e-03 6.9337476038684055e-03 0.0000000000000000e+00  4.1632177491121736e-03 6.6573899693588359e-03 0.0000000000000000e+00  3.5052306944011622e-03 6.4231308642261342e-03 0.0000000000000000e+00  2.8420248803972406e-03 6.2305354452008811e-03 0.0000000000000000e+00  2.1752113376154094e-03 6.0801924383478137e-03 0.0000000000000000e+00  1.5051882270802168e-03 5.9710622725229123e-03 0.0000000000000000e+00  8.3353625209676497e-04 5.9029661825551029e-03 0.0000000000000000e+00  1.6064914993894195e-04 5.8767512261099601e-03 0.0000000000000000e+00  -5.1223676113036349e-04 5.8919573839588298e-03 0.0000000000000000e+00  -1.1840120725743698e-03 5.9477589416363150e-03 0.0000000000000000e+00  -1.8540767606744248e-03 6.0447361841951628e-03 0.0000000000000000e+00  -2.5211321167282587e-03 6.1834383329614764e-03 0.0000000000000000e+00  -3.1844337402790013e-03 6.3640513427494780e-03 0.0000000000000000e+00  -3.8426595752507542e-03 6.5861759805777888e-03 0.0000000000000000e+00  -4.4950179326518824e-03 6.8502468132499222e-03 0.0000000000000000e+00  -5.1401907424975723e-03 7.1560243431520541e-03 0.0000000000000000e+00  -5.7772537457078691e-03 7.5041478076131379e-03 0.0000000000000000e+00  -6.4048653212859579e-03 7.8942425425261864e-03 0.0000000000000000e+00  -7.0214804890746663e-03 8.3277582049902255e-03 0.0000000000000000e+00  -7.6262555949473615e-03 8.8036002372755134e-03 0.0000000000000000e+00  -8.2170525452491591e-03 9.3224144535186300e-03 0.0000000000000000e+00  -8.7927091337519653e-03 9.8843949998303291e-03 0.0000000000000000e+00  -9.3515854197870046e-03 1.0489342570291174e-02 0.0000000000000000e+00  -9.8915395969187449e-03 1.1137403725054425e-02 0.0000000000000000e+00  -1.0411407815837336e-02 1.1829022981065702e-02 0.0000000000000000e+00  -1.0908172245630291e-02 1.2564019856690624e-02 0.0000000000000000e+00  -1.1381026150656035e-02 1.3341748788392463e-02 0.0000000000000000e+00  -1.1826581934374886e-02 1.4162078580873550e-02 0.0000000000000000e+00  -1.2243327901426277e-02 1.5025179016413721e-02 0.0000000000000000e+00  -1.2628869025252155e-02 1.5928560170359360e-02 0.0000000000000000e+00  -1.2980465839127016e-02 1.6872140644790458e-02 0.0000000000000000e+00  -1.3295995977028225e-02 1.7855999968467196e-02 0.0000000000000000e+00  -1.3572160542676593e-02 1.8877906464715450e-02 0.0000000000000000e+00  -1.3807369031484162e-02 1.9936451108431542e-02 0.0000000000000000e+00  -1.3997581870646238e-02 2.1030701670593337e-02 0.0000000000000000e+00  -1.4141287297408158e-02 2.2156373952949098e-02 0.0000000000000000e+00  -1.4235307605972627e-02 2.3313231847081908e-02 0.0000000000000000e+00  -1.4276839623037571e-02 2.4497939976529267e-02 0.0000000000000000e+00  -1.4263646707348145e-02 2.5707413164216646e-02 0.0000000000000000e+00  -1.4192872971990768e-02 2.6938048185796013e-02 0.0000000000000000e+00  -1.4062751334115123e-02 2.8186615565496828e-02 0.0000000000000000e+00  -1.3870002679179899e-02 2.9449766481045917e-02 0.0000000000000000e+00  -1.3614022785907639e-02 3.0721052353507396e-02 0.0000000000000000e+00  -1.3292448976035875e-02 3.1997387605909762e-02 0.0000000000000000e+00  -1.2903500656998383e-02 3.3274223324987584e-02 0.0000000000000000e+00  -1.2446467835759945e-02 3.4545108184867619e-02 0.0000000000000000e+00  -1.1920770667486438e-02 3.5804716841781971e-02 0.0000000000000000e+00  -1.1326053809984088e-02 3.7047210377544881e-02 0.0000000000000000e+00  -1.0662578810969704e-02 3.8267135162975537e-02 0.0000000000000000e+00  -9.9298117679734038e-03 3.9459318319813155e-02 0.0000000000000000e+00  -9.1302073061695077e-03 4.0616260260675989e-02 0.0000000000000000e+00  -8.2649944978502640e-03 4.1732288545782932e-02 0.0000000000000000e+00  -7.3355510172861474e-03 4.2802435961706527e-02 0.0000000000000000e+00  -6.3464198726769028e-03 4.3818578427703835e-02 0.0000000000000000e+00  -5.2986650853220031e-03 4.4777376598071447e-02 0.0000000000000000e+00  -4.1972202865754992e-03 4.5672213914778895e-02 0.0000000000000000e+00  -3.0465658614935880e-03 4.6498215360142155e-02 0.0000000000000000e+00  -2.1431403764344999e-03 4.8498813681452237e-02 0.0000000000000000e+00  -2.4567653106460840e-03 4.9809460041683698e-02 0.0000000000000000e+00  -2.7915725125577419e-03 5.1189677805709551e-02 0.0000000000000000e+00  -3.1501283241357398e-03 5.2641401810066615e-02 0.0000000000000000e+00  -3.5329455233392743e-03 5.4171698394301165e-02 0.0000000000000000e+00  -3.9444454557140927e-03 5.5783931835002951e-02 0.0000000000000000e+00  -4.3813766393627955e-03 5.7484300283494771e-02 0.0000000000000000e+00  -4.8522105272891117e-03 5.9279674655825787e-02 0.0000000000000000e+00  -5.3577590642003700e-03 6.1174805270624501e-02 0.0000000000000000e+00  -5.8970131696635883e-03 6.3178705468077134e-02 0.0000000000000000e+00  -6.4759405080652682e-03 6.5298240515380329e-02 0.0000000000000000e+00  -7.0999672514129378e-03 6.7539960200673807e-02 0.0000000000000000e+00  -7.7722743376519438e-03 6.9914525069902353e-02 0.0000000000000000e+00  -8.4998868878660479e-03 7.2425686405011944e-02 0.0000000000000000e+00  -9.2841066233238737e-03 7.5086291246111991e-02 0.0000000000000000e+00  -1.0133601609965385e-02 7.7903715673735940e-02 0.0000000000000000e+00  -1.1058563308092496e-02 8.0880944657184831e-02 0.0000000000000000e+00  -1.2059077382654141e-02 8.4031391021044774e-02 0.0000000000000000e+00  -1.3143097471495077e-02 8.7353730409320637e-02 0.0000000000000000e+00  -1.4317352488520039e-02 9.0845713306501027e-02 0.0000000000000000e+00  -1.5572062699260010e-02 9.4507854801925265e-02 0.0000000000000000e+00  -1.6899365611702251e-02 9.8321557908114934e-02 0.0000000000000000e+00  -1.8262227244586093e-02 1.0226534330005621e-01 0.0000000000000000e+00  -1.9603425984878606e-02 1.0630422097036045e-01 0.0000000000000000e+00  -2.0810375363379575e-02 1.1038464227490917e-01 0.0000000000000000e+00  -2.1722524742930495e-02 1.1442642435782051e-01 0.0000000000000000e+00  -2.2078677409810454e-02 1.1833180397037471e-01 0.0000000000000000e+00  -2.1543054127486007e-02 1.2197963611427848e-01 0.0000000000000000e+00  -1.9619044228532782e-02 1.2521509833488870e-01 0.0000000000000000e+00  -1.5772762844040559e-02 1.2787935092939828e-01 0.0000000000000000e+00  -9.4048216767218893e-03 1.2981071889918369e-01 0.0000000000000000e+00  -6.6890892894700944e-05 1.3087557023359173e-01 0.0000000000000000e+00  1.2288689552402332e-02 1.3093614243147655e-01 0.0000000000000000e+00  2.7131243587128713e-02 1.2999228177960986e-01 0.0000000000000000e+00  4.3014796897307736e-02 1.2790865494267548e-01 0.0000000000000000e+00  5.7614686814979395e-02 1.2464282316694006e-01 0.0000000000000000e+00  6.7989430196367273e-02 1.1985884493437060e-01 0.0000000000000000e+00  7.0512407601522747e-02 1.1356432426762722e-01 0.0000000000000000e+00  6.1848136376048413e-02 1.0572377840962470e-01 0.0000000000000000e+00  3.9648645632270621e-02 9.8043533187541332e-02 0.0000000000000000e+00  5.5455674771554709e-03 9.3009905608489193e-02 0.0000000000000000e+00  -3.1928184926957093e-02 9.3881742494864487e-02 0.0000000000000000e+00  -5.9503923843386750e-02 1.0343962681537790e-01 0.0000000000000000e+00  -6.7991928541180288e-02 1.1961797955420062e-01 0.0000000000000000e+00  -6.1339872164706766e-02 1.3729578293109310e-01 0.0000000000000000e+00  -4.9758107124008369e-02 1.5177799034455686e-01 0.0000000000000000e+00  -3.9166978510755741e-02 1.6149205754666240e-01 0.0000000000000000e+00  -3.0448414630991790e-02 1.6764401891469077e-01 0.0000000000000000e+00  -2.3104815126920190e-02 1.7108902506698037e-01 0.0000000000000000e+00  -1.6856131202809550e-02 1.7251965724765250e-01 0.0000000000000000e+00  -1.1506356384582167e-02 1.7239267978534223e-01 0.0000000000000000e+00  -6.9166002202915577e-03 1.7104771568115482e-01 0.0000000000000000e+00  -3.0024587972845014e-03 1.6874777446867734e-01 0.0000000000000000e+00  3.3404378424457191e-04 1.6568258845041062e-01 0.0000000000000000e+00  3.1168692039303032e-03 1.6201860822212907e-01 0.0000000000000000e+00  5.4189311366511757e-03 1.5789624458964202e-01 0.0000000000000000e+00  7.2734216362850589e-03 1.5344548078118753e-01 0.0000000000000000e+00  8.7260897266404035e-03 1.4877191638627951e-01 0.0000000000000000e+00  9.8308688619898419e-03 1.4395752436674164e-01 0.0000000000000000e+00  1.0627935141086380e-02 1.3908154419749769e-01 0.0000000000000000e+00  1.1166694791445456e-02 1.3419619713194475e-01 0.0000000000000000e+00  1.1480494878060570e-02 1.2935746171009249e-01 0.0000000000000000e+00  1.1609878128982554e-02 1.2460246356121292e-01 0.0000000000000000e+00  1.1586269151027529e-02 1.1996032320550577e-01 0.0000000000000000e+00  1.1440060272670789e-02 1.1545476879256895e-01 0.0000000000000000e+00  1.1198072829300817e-02 1.1109848572360692e-01 0.0000000000000000e+00  1.0881829386452482e-02 1.0690924810643279e-01 0.0000000000000000e+00  1.0512952810420070e-02 1.0288065341505331e-01 0.0000000000000000e+00  1.0102152726610440e-02 9.9030298741433265e-02 0.0000000000000000e+00  9.6648933754308122e-03 9.5345535622563815e-02 0.0000000000000000e+00  9.2081682938470830e-03 9.1831079195812446e-02 0.0000000000000000e+00  8.7378184748529708e-03 8.8482811217429430e-02 0.0000000000000000e+00  8.2625990483196857e-03 8.5297475895151409e-02 0.0000000000000000e+00  7.7901826142910031e-03 8.2264727379386782e-02 0.0000000000000000e+00  7.3229293928296739e-03 7.9378175381922517e-02 0.0000000000000000e+00  6.8609399121227670e-03 7.6637366373915008e-02 0.0000000000000000e+00  6.4116252983882167e-03 7.4027625627475974e-02 0.0000000000000000e+00  5.9687771039292981e-03 7.1548334275749484e-02 0.0000000000000000e+00  5.5401590685791305e-03 6.9189104779403127e-02 0.0000000000000000e+00  5.1252105790678577e-03 6.6945885056986620e-02 0.0000000000000000e+00  4.7232276206489567e-03 6.4811887049226274e-02 0.0000000000000000e+00  4.3352405855928786e-03 6.2780058886818896e-02 0.0000000000000000e+00  3.9618668622307604e-03 6.0846952596043447e-02 0.0000000000000000e+00  3.6036233482414780e-03 5.9004134837738406e-02 0.0000000000000000e+00  3.2585024080014195e-03 5.7249698610316369e-02 0.0000000000000000e+00  2.9285877495410350e-03 5.5576033135644035e-02 0.0000000000000000e+00  2.6140067170274039e-03 5.3980673898330951e-02 0.0000000000000000e+00  2.3127942279684579e-03 5.2458003483182608e-02 0.0000000000000000e+00  2.0256510167889438e-03 5.1005245401331188e-02 0.0000000000000000e+00  1.7517053520682961e-03 4.9617456549739980e-02 0.0000000000000000e+00  1.4921975960223005e-03 4.8292288483593654e-02 0.0000000000000000e+00  1.2467608776905654e-03 4.7025267274029982e-02 0.0000000000000000e+00  1.0139450917697886e-03 4.5814518033364116e-02 0.0000000000000000e+00  7.9333849600030765e-04 4.4656253146959583e-02 0.0000000000000000e+00  5.8609144180558708e-04 4.3547616833898857e-02 0.0000000000000000e+00  3.9036881364517797e-04 4.2487023372433264e-02 0.0000000000000000e+00  2.0720529481814756e-04 4.1471060377276610e-02 0.0000000000000000e+00  3.6531038377821008e-05 4.0498264907675219e-02 0.0000000000000000e+00  -1.2345602146525880e-04 3.9566787554526799e-02 0.0000000000000000e+00  5.8768665923443735e-04 3.8161507323977328e-02 0.0000000000000000e+00  1.4215335348203111e-03 3.7600119446976860e-02 0.0000000000000000e+00  2.2264693882574397e-03 3.6992140432558419e-02 0.0000000000000000e+00  2.9991485770193894e-03 3.6340656133732212e-02 0.0000000000000000e+00  3.7379354118942769e-03 3.5647973458843275e-02 0.0000000000000000e+00  4.4399264683702101e-03 3.4917964336187206e-02 0.0000000000000000e+00  5.1040111499735044e-03 3.4152650950662757e-02 0.0000000000000000e+00  5.7276633762912959e-03 3.3355949215194337e-02 0.0000000000000000e+00  6.3096792016429587e-03 3.2531010030134581e-02 0.0000000000000000e+00  6.8494805637225910e-03 3.1680847854995420e-02 0.0000000000000000e+00  7.3453961130641073e-03 3.0809091090478993e-02 0.0000000000000000e+00  7.7967612341418441e-03 2.9919882022726153e-02 0.0000000000000000e+00  8.2031691913146965e-03 2.9016045937240279e-02 0.0000000000000000e+00  8.5638945656366806e-03 2.8101845474278329e-02 0.0000000000000000e+00  8.8798982007235981e-03 2.7179345978228069e-02 0.0000000000000000e+00  9.1505290035932708e-03 2.6252968514378104e-02 0.0000000000000000e+00  9.3763703836672093e-03 2.5326136529692775e-02 0.0000000000000000e+00  9.5581911476438890e-03 2.4401493797034560e-02 0.0000000000000000e+00  9.6966582847511276e-03 2.3481872825407150e-02 0.0000000000000000e+00  9.7923599799147280e-03 2.2571056055230337e-02 0.0000000000000000e+00  9.8466989591770113e-03 2.1671132242304963e-02 0.0000000000000000e+00  9.8606015374936226e-03 2.0785186348019784e-02 0.0000000000000000e+00  9.8352683166441496e-03 1.9915705399911058e-02 0.0000000000000000e+00  9.7726030647889116e-03 1.9064054379949909e-02 0.0000000000000000e+00  9.6736119290387196e-03 1.8233047280313115e-02 0.0000000000000000e+00  9.5398270271616591e-03 1.7424477330530378e-02 0.0000000000000000e+00  9.3729943849797815e-03 1.6640224631944412e-02 0.0000000000000000e+00  9.1748214726980852e-03 1.5881272526668148e-02 0.0000000000000000e+00  8.9467079259186091e-03 1.5150198119070517e-02 0.0000000000000000e+00  8.6901532614186774e-03 1.4447607499317755e-02 0.0000000000000000e+00  8.4071343534624834e-03 1.3774720862315805e-02 0.0000000000000000e+00  8.0990717628299860e-03 1.3132461104535351e-02 0.0000000000000000e+00  7.7677711015728592e-03 1.2521494135121164e-02 0.0000000000000000e+00  7.4145834214628106e-03 1.1943165727045299e-02 0.0000000000000000e+00  7.0412854711841381e-03 1.1397855993368126e-02 0.0000000000000000e+00  6.6493780883148139e-03 1.0886522980270801e-02 0.0000000000000000e+00  6.2401317561966430e-03 1.0408796484850449e-02 0.0000000000000000e+00  5.8152937454817866e-03 9.9658184208452818e-03 0.0000000000000000e+00  5.3760001936573433e-03 9.5576473530798577e-03 0.0000000000000000e+00  4.9239888868566712e-03 9.1841809838728791e-03 0.0000000000000000e+00  4.4603515035500771e-03 8.8463702254328071e-03 0.0000000000000000e+00  3.9863034415940791e-03 8.5447482365141655e-03 0.0000000000000000e+00  3.5033492342241082e-03 8.2781632949981698e-03 0.0000000000000000e+00  3.0124592818045015e-03 8.0474311816479439e-03 0.0000000000000000e+00  2.5149301670410905e-03 7.8524395331168971e-03 0.0000000000000000e+00  2.0120507226921644e-03 7.6933545693271327e-03 0.0000000000000000e+00  1.5047223934356263e-03 7.5697398392541989e-03 0.0000000000000000e+00  9.9453934418753179e-04 7.4824435231147695e-03 0.0000000000000000e+00  4.8210276537810463e-04 7.4314404060609063e-03 0.0000000000000000e+00  -3.1090673502303789e-05 7.4160067307759243e-03 0.0000000000000000e+00  -5.4415897938590732e-04 7.4364296151253886e-03 0.0000000000000000e+00  -1.0560530748099841e-03 7.4931763573209799e-03 0.0000000000000000e+00  -1.5653928229966908e-03 7.5859925616614090e-03 0.0000000000000000e+00  -2.0712522826951507e-03 7.7145165534444745e-03 0.0000000000000000e+00  -2.5724003232194866e-03 7.8786758775686149e-03 0.0000000000000000e+00  -3.0679362146453053e-03 8.0786604228357886e-03 0.0000000000000000e+00  -3.5563819553710218e-03 8.3142075746322434e-03 0.0000000000000000e+00  -4.0367625977058312e-03 8.5856844180024917e-03 0.0000000000000000e+00  -4.5077018807323449e-03 8.8925378073541460e-03 0.0000000000000000e+00  -4.9679033947928764e-03 9.2350714911347848e-03 0.0000000000000000e+00  -5.4163801285080958e-03 9.6121737284725253e-03 0.0000000000000000e+00  -5.8513544032104646e-03 1.0024540511823585e-02 0.0000000000000000e+00  -6.2719184151364482e-03 1.0471463967804939e-02 0.0000000000000000e+00  -6.6763965072380851e-03 1.0952634684807097e-02 0.0000000000000000e+00  -7.0633047039747468e-03 1.1467675562704963e-02 0.0000000000000000e+00  -7.4313054714950323e-03 1.2016138073776318e-02 0.0000000000000000e+00  -7.7786502610794625e-03 1.2597211175927605e-02 0.0000000000000000e+00  -8.1043070663571592e-03 1.3209941567850074e-02 0.0000000000000000e+00  -8.4059461654473894e-03 1.3854174028050623e-02 0.0000000000000000e+00  -8.6827696428326342e-03 1.4528519076691818e-02 0.0000000000000000e+00  -8.9326786091046047e-03 1.5231836843836425e-02 0.0000000000000000e+00  -9.1540318710245008e-03 1.5963899573585776e-02 0.0000000000000000e+00  -9.3453595836233052e-03 1.6723130502344901e-02 0.0000000000000000e+00  -9.5051525847953035e-03 1.7507059196628427e-02 0.0000000000000000e+00  -9.6319952995357391e-03 1.8314812304428801e-02 0.0000000000000000e+00  -9.7236318241447628e-03 1.9144381654621991e-02 0.0000000000000000e+00  -9.7796793484798070e-03