<?xml version="1.0"?>
<VTKFile type="UnstructuredGrid"  version="0.1"  >
<UnstructuredGrid>
<Piece  NumberOfPoints="16275" NumberOfCells="32468">
<Points>
<DataArray  type="Float64"  NumberOfComponents="3"  format="ascii">-0.5 0.5 0  0.5 0.5 0  0.5 -0.5 0  -0.5 -0.5 0  -1 1 0  1 1 0  1 -1 0  -1 -1 0  -0.4900000000000277 0.5 0  -0.4800000000000555 0.5 0  -0.4700000000000832 0.5 0  -0.4600000000001109 0.5 0  -0.4500000000001387 0.5 0  -0.4400000000001664 0.5 0  -0.4300000000001942 0.5 0  -0.4200000000002219 0.5 0  -0.4100000000002497 0.5 0  -0.4000000000002774 0.5 0  -0.3900000000003052 0.5 0  -0.3800000000003328 0.5 0  -0.3700000000003606 0.5 0  -0.3600000000003883 0.5 0  -0.3500000000004161 0.5 0  -0.3400000000004438 0.5 0  -0.3300000000004716 0.5 0  -0.3200000000004993 0.5 0  -0.3100000000005271 0.5 0  -0.3000000000005548 0.5 0  -0.2900000000005825 0.5 0  -0.2800000000006103 0.5 0  -0.2700000000006381 0.5 0  -0.2600000000006658 0.5 0  -0.2500000000006935 0.5 0  -0.2400000000007212 0.5 0  -0.230000000000749 0.5 0  -0.2200000000007767 0.5 0  -0.2100000000008044 0.5 0  -0.2000000000008322 0.5 0  -0.19000000000086 0.5 0  -0.1800000000008877 0.5 0  -0.1700000000009154 0.5 0  -0.1600000000009431 0.5 0  -0.1500000000009709 0.5 0  -0.1400000000009986 0.5 0  -0.1300000000010264 0.5 0  -0.1200000000010541 0.5 0  -0.1100000000010818 0.5 0  -0.1000000000011096 0.5 0  -0.09000000000113734 0.5 0  -0.08000000000116503 0.5 0  -0.07000000000119283 0.5 0  -0.06000000000122058 0.5 0  -0.05000000000124827 0.5 0  -0.04000000000127607 0.5 0  -0.03000000000130376 0.5 0  -0.02000000000133151 0.5 0  -0.01000000000135925 0.5 0  -1.376121439022882e-12 0.5 0  0.009999999998640763 0.5 0  0.01999999999866864 0.5 0  0.02999999999869629 0.5 0  0.03999999999872406 0.5 0  0.04999999999875182 0.5 0  0.05999999999877947 0.5 0  0.06999999999880724 0.5 0  0.079999999998835 0.5 0  0.08999999999886266 0.5 0  0.09999999999889042 0.5 0  0.1099999999989182 0.5 0  0.1199999999989459 0.5 0  0.1299999999989737 0.5 0  0.1399999999990014 0.5 0  0.1499999999990291 0.5 0  0.1599999999990568 0.5 0  0.1699999999990847 0.5 0  0.1799999999991124 0.5 0  0.1899999999991401 0.5 0  0.1999999999991678 0.5 0  0.2099999999991955 0.5 0  0.2199999999992234 0.5 0  0.2299999999992511 0.5 0  0.2399999999992788 0.5 0  0.2499999999993066 0.5 0  0.2599999999993342 0.5 0  0.269999999999362 0.5 0  0.2799999999993897 0.5 0  0.2899999999994175 0.5 0  0.2999999999994452 0.5 0  0.3099999999994729 0.5 0  0.3199999999995007 0.5 0  0.3299999999995284 0.5 0  0.3399999999995562 0.5 0  0.3499999999995839 0.5 0  0.3599999999996116 0.5 0  0.3699999999996393 0.5 0  0.379999999999667 0.5 0  0.3899999999996949 0.5 0  0.3999999999997226 0.5 0  0.4099999999997503 0.5 0  0.419999999999778 0.5 0  0.4299999999998058 0.5 0  0.4399999999998336 0.5 0  0.4499999999998613 0.5 0  0.4599999999998891 0.5 0  0.4699999999999167 0.5 0  0.4799999999999445 0.5 0  0.4899999999999722 0.5 0  0.5 0.4900000000000277 0  0.5 0.4800000000000555 0  0.5 0.4700000000000832 0  0.5 0.4600000000001109 0  0.5 0.4500000000001387 0  0.5 0.4400000000001664 0  0.5 0.4300000000001942 0  0.5 0.4200000000002219 0  0.5 0.4100000000002497 0  0.5 0.4000000000002774 0  0.5 0.3900000000003052 0  0.5 0.3800000000003328 0  0.5 0.3700000000003606 0  0.5 0.3600000000003883 0  0.5 0.3500000000004161 0  0.5 0.3400000000004438 0  0.5 0.3300000000004716 0  0.5 0.3200000000004993 0  0.5 0.3100000000005271 0  0.5 0.3000000000005548 0  0.5 0.2900000000005825 0  0.5 0.2800000000006103 0  0.5 0.2700000000006381 0  0.5 0.2600000000006658 0  0.5 0.2500000000006935 0  0.5 0.2400000000007212 0  0.5 0.230000000000749 0  0.5 0.2200000000007767 0  0.5 0.2100000000008044 0  0.5 0.2000000000008322 0  0.5 0.19000000000086 0  0.5 0.1800000000008877 0  0.5 0.1700000000009154 0  0.5 0.1600000000009431 0  0.5 0.1500000000009709 0  0.5 0.1400000000009986 0  0.5 0.1300000000010264 0  0.5 0.1200000000010541 0  0.5 0.1100000000010818 0  0.5 0.1000000000011096 0  0.5 0.09000000000113734 0  0.5 0.08000000000116503 0  0.5 0.07000000000119283 0  0.5 0.06000000000122058 0  0.5 0.05000000000124827 0  0.5 0.04000000000127607 0  0.5 0.03000000000130376 0  0.5 0.02000000000133151 0  0.5 0.01000000000135925 0  0.5 1.376121439022882e-12 0  0.5 -0.009999999998640763 0  0.5 -0.01999999999866864 0  0.5 -0.02999999999869629 0  0.5 -0.03999999999872406 0  0.5 -0.04999999999875182 0  0.5 -0.05999999999877947 0  0.5 -0.06999999999880724 0  0.5 -0.079999999998835 0  0.5 -0.08999999999886266 0  0.5 -0.09999999999889042 0  0.5 -0.1099999999989182 0  0.5 -0.1199999999989459 0  0.5 -0.1299999999989737 0  0.5 -0.1399999999990014 0  0.5 -0.1499999999990291 0  0.5 -0.1599999999990568 0  0.5 -0.1699999999990847 0  0.5 -0.1799999999991124 0  0.5 -0.1899999999991401 0  0.5 -0.1999999999991678 0  0.5 -0.2099999999991955 0  0.5 -0.2199999999992234 0  0.5 -0.2299999999992511 0  0.5 -0.2399999999992788 0  0.5 -0.2499999999993066 0  0.5 -0.2599999999993342 0  0.5 -0.269999999999362 0  0.5 -0.2799999999993897 0  0.5 -0.2899999999994175 0  0.5 -0.2999999999994452 0  0.5 -0.3099999999994729 0  0.5 -0.3199999999995007 0  0.5 -0.3299999999995284 0  0.5 -0.3399999999995562 0  0.5 -0.3499999999995839 0  0.5 -0.3599999999996116 0  0.5 -0.3699999999996393 0  0.5 -0.379999999999667 0  0.5 -0.3899999999996949 0  0.5 -0.3999999999997226 0  0.5 -0.4099999999997503 0  0.5 -0.419999999999778 0  0.5 -0.4299999999998058 0  0.5 -0.4399999999998336 0  0.5 -0.4499999999998613 0  0.5 -0.4599999999998891 0  0.5 -0.4699999999999167 0  0.5 -0.4799999999999445 0  0.5 -0.4899999999999722 0  0.4900000000000277 -0.5 0  0.4800000000000555 -0.5 0  0.4700000000000832 -0.5 0  0.4600000000001109 -0.5 0  0.4500000000001387 -0.5 0  0.4400000000001664 -0.5 0  0.4300000000001942 -0.5 0  0.4200000000002219 -0.5 0  0.4100000000002497 -0.5 0  0.4000000000002774 -0.5 0  0.3900000000003052 -0.5 0  0.3800000000003328 -0.5 0  0.3700000000003606 -0.5 0  0.3600000000003883 -0.5 0  0.3500000000004161 -0.5 0  0.3400000000004438 -0.5 0  0.3300000000004716 -0.5 0  0.3200000000004993 -0.5 0  0.3100000000005271 -0.5 0  0.3000000000005548 -0.5 0  0.2900000000005825 -0.5 0  0.2800000000006103 -0.5 0  0.2700000000006381 -0.5 0  0.2600000000006658 -0.5 0  0.2500000000006935 -0.5 0  0.2400000000007212 -0.5 0  0.230000000000749 -0.5 0  0.2200000000007767 -0.5 0  0.2100000000008044 -0.5 0  0.2000000000008322 -0.5 0  0.19000000000086 -0.5 0  0.1800000000008877 -0.5 0  0.1700000000009154 -0.5 0  0.1600000000009431 -0.5 0  0.1500000000009709 -0.5 0  0.1400000000009986 -0.5 0  0.1300000000010264 -0.5 0  0.1200000000010541 -0.5 0  0.1100000000010818 -0.5 0  0.1000000000011096 -0.5 0  0.09000000000113734 -0.5 0  0.08000000000116503 -0.5 0  0.07000000000119283 -0.5 0  0.06000000000122058 -0.5 0  0.05000000000124827 -0.5 0  0.04000000000127607 -0.5 0  0.03000000000130376 -0.5 0  0.02000000000133151 -0.5 0  0.01000000000135925 -0.5 0  1.376121439022882e-12 -0.5 0  -0.009999999998640763 -0.5 0  -0.01999999999866864 -0.5 0  -0.02999999999869629 -0.5 0  -0.03999999999872406 -0.5 0  -0.04999999999875182 -0.5 0  -0.05999999999877947 -0.5 0  -0.06999999999880724 -0.5 0  -0.079999999998835 -0.5 0  -0.08999999999886266 -0.5 0  -0.09999999999889042 -0.5 0  -0.1099999999989182 -0.5 0  -0.1199999999989459 -0.5 0  -0.1299999999989737 -0.5 0  -0.1399999999990014 -0.5 0  -0.1499999999990291 -0.5 0  -0.1599999999990568 -0.5 0  -0.1699999999990847 -0.5 0  -0.1799999999991124 -0.5 0  -0.1899999999991401 -0.5 0  -0.1999999999991678 -0.5 0  -0.2099999999991955 -0.5 0  -0.2199999999992234 -0.5 0  -0.2299999999992511 -0.5 0  -0.2399999999992788 -0.5 0  -0.2499999999993066 -0.5 0  -0.2599999999993342 -0.5 0  -0.269999999999362 -0.5 0  -0.2799999999993897 -0.5 0  -0.2899999999994175 -0.5 0  -0.2999999999994452 -0.5 0  -0.3099999999994729 -0.5 0  -0.3199999999995007 -0.5 0  -0.3299999999995284 -0.5 0  -0.3399999999995562 -0.5 0  -0.3499999999995839 -0.5 0  -0.3599999999996116 -0.5 0  -0.3699999999996393 -0.5 0  -0.379999999999667 -0.5 0  -0.3899999999996949 -0.5 0  -0.3999999999997226 -0.5 0  -0.4099999999997503 -0.5 0  -0.419999999999778 -0.5 0  -0.4299999999998058 -0.5 0  -0.4399999999998336 -0.5 0  -0.4499999999998613 -0.5 0  -0.4599999999998891 -0.5 0  -0.4699999999999167 -0.5 0  -0.4799999999999445 -0.5 0  -0.4899999999999722 -0.5 0  -0.5 -0.4900000000000277 0  -0.5 -0.4800000000000555 0  -0.5 -0.4700000000000832 0  -0.5 -0.4600000000001109 0  -0.5 -0.4500000000001387 0  -0.5 -0.4400000000001664 0  -0.5 -0.4300000000001942 0  -0.5 -0.4200000000002219 0  -0.5 -0.4100000000002497 0  -0.5 -0.4000000000002774 0  -0.5 -0.3900000000003052 0  -0.5 -0.3800000000003328 0  -0.5 -0.3700000000003606 0  -0.5 -0.3600000000003883 0  -0.5 -0.3500000000004161 0  -0.5 -0.3400000000004438 0  -0.5 -0.3300000000004716 0  -0.5 -0.3200000000004993 0  -0.5 -0.3100000000005271 0  -0.5 -0.3000000000005548 0  -0.5 -0.2900000000005825 0  -0.5 -0.2800000000006103 0  -0.5 -0.2700000000006381 0  -0.5 -0.2600000000006658 0  -0.5 -0.2500000000006935 0  -0.5 -0.2400000000007212 0  -0.5 -0.230000000000749 0  -0.5 -0.2200000000007767 0  -0.5 -0.2100000000008044 0  -0.5 -0.2000000000008322 0  -0.5 -0.19000000000086 0  -0.5 -0.1800000000008877 0  -0.5 -0.1700000000009154 0  -0.5 -0.1600000000009431 0  -0.5 -0.1500000000009709 0  -0.5 -0.1400000000009986 0  -0.5 -0.1300000000010264 0  -0.5 -0.1200000000010541 0  -0.5 -0.1100000000010818 0  -0.5 -0.1000000000011096 0  -0.5 -0.09000000000113734 0  -0.5 -0.08000000000116503 0  -0.5 -0.07000000000119283 0  -0.5 -0.06000000000122058 0  -0.5 -0.05000000000124827 0  -0.5 -0.04000000000127607 0  -0.5 -0.03000000000130376 0  -0.5 -0.02000000000133151 0  -0.5 -0.01000000000135925 0  -0.5 -1.376121439022882e-12 0  -0.5 0.009999999998640763 0  -0.5 0.01999999999866864 0  -0.5 0.02999999999869629 0  -0.5 0.03999999999872406 0  -0.5 0.04999999999875182 0  -0.5 0.05999999999877947 0  -0.5 0.06999999999880724 0  -0.5 0.079999999998835 0  -0.5 0.08999999999886266 0  -0.5 0.09999999999889042
[...]
<PointData  Vectors="f_27-0"> 
<DataArray  type="Float64"  Name="f_27-0"  NumberOfComponents="3" format="ascii">1.7340445095878748e-03 4.9492293119537213e-02 0.0000000000000000e+00  -2.3819697516714259e-03 4.9147112734331651e-02 0.0000000000000000e+00  -5.4619963801005324e-04 3.7423593516021134e-02 0.0000000000000000e+00  6.4009342701959069e-04 3.7322085757235751e-02 0.0000000000000000e+00  -1.7484481068839168e-03 6.5354541248232667e-03 0.0000000000000000e+00  1.7770438427817655e-03 6.4737708078668665e-03 0.0000000000000000e+00  -8.1719179280591986e-04 6.1662737115719228e-03 0.0000000000000000e+00  8.1456350513963837e-04 6.1982008075576189e-03 0.0000000000000000e+00  3.0397888845770282e-03 4.8725898163288220e-02 0.0000000000000000e+00  4.2998512636416002e-03 4.7876368339116258e-02 0.0000000000000000e+00  5.5074051774354153e-03 4.6949241666043126e-02 0.0000000000000000e+00  6.6588877168539378e-03 4.5949044410014649e-02 0.0000000000000000e+00  7.7480411988781750e-03 4.4882817925442894e-02 0.0000000000000000e+00  8.7726262342002689e-03 4.3755094769515557e-02 0.0000000000000000e+00  9.7274509320982236e-03 4.2574776784043790e-02 0.0000000000000000e+00  1.0611571032488016e-02 4.1346583758965126e-02 0.0000000000000000e+00  1.1422162816135827e-02 4.0077893447197324e-02 0.0000000000000000e+00  1.2156345350840921e-02 3.8776921721190745e-02 0.0000000000000000e+00  1.2815121897076783e-02 3.7449920160291868e-02 0.0000000000000000e+00  1.3397678137151857e-02 3.6102520253326408e-02 0.0000000000000000e+00  1.3904142428204595e-02 3.4742305225662400e-02 0.0000000000000000e+00  1.4336047078790250e-02 3.3374090412796410e-02 0.0000000000000000e+00  1.4692797564744280e-02 3.2006800926896020e-02 0.0000000000000000e+00  1.4977795009702605e-02 3.0643705865442187e-02 0.0000000000000000e+00  1.5192454157484723e-02 2.9290123800842269e-02 0.0000000000000000e+00  1.5338456688124563e-02 2.7952372645075548e-02 0.0000000000000000e+00  1.5419053347727332e-02 2.6634788126722892e-02 0.0000000000000000e+00  1.5436991043740715e-02 2.5340094286573342e-02 0.0000000000000000e+00  1.5394595344815515e-02 2.4073135816525953e-02 0.0000000000000000e+00  1.5295435593620120e-02 2.2836338521174924e-02 0.0000000000000000e+00  1.5142442280085180e-02 2.1632523748900241e-02 0.0000000000000000e+00  1.4938311436014075e-02 2.0466413528712226e-02 0.0000000000000000e+00  1.4686412660831948e-02 1.9338037906570179e-02 0.0000000000000000e+00  1.4390152043290597e-02 1.8249825770734546e-02 0.0000000000000000e+00  1.4052024083207057e-02 1.7203195248189942e-02 0.0000000000000000e+00  1.3675169561024466e-02 1.6200561918375631e-02 0.0000000000000000e+00  1.3262663489554934e-02 1.5240865823799275e-02 0.0000000000000000e+00  1.2817285684941329e-02 1.4326043296331218e-02 0.0000000000000000e+00  1.2341360239827350e-02 1.3456836440547090e-02 0.0000000000000000e+00  1.1837570901382330e-02 1.2633526858665617e-02 0.0000000000000000e+00  1.1308420637877086e-02 1.1856711454916161e-02 0.0000000000000000e+00  1.0756269844118004e-02 1.1125599747128208e-02 0.0000000000000000e+00  1.0182963269707202e-02 1.0440511181749268e-02 0.0000000000000000e+00  9.5906559072896289e-03 9.8009618320924960e-03 0.0000000000000000e+00  8.9814668565479823e-03 9.2076873428939693e-03 0.0000000000000000e+00  8.3568581180490757e-03 8.6597152877336669e-03 0.0000000000000000e+00  7.7186813649163018e-03 8.1565830232662312e-03 0.0000000000000000e+00  7.0684436021237647e-03 7.6990224895178930e-03 0.0000000000000000e+00  6.4076671229283148e-03 7.2856271230412077e-03 0.0000000000000000e+00  5.7377516420347007e-03 6.9155439013355241e-03 0.0000000000000000e+00  5.0597117320145034e-03 6.5903611562852247e-03 0.0000000000000000e+00  4.3749356927888410e-03 6.3083789981625083e-03 0.0000000000000000e+00  3.6844788732863813e-03 6.0695903278802071e-03 0.0000000000000000e+00  2.9891774038682969e-03 5.8734477461855564e-03 0.0000000000000000e+00  2.2906461463826004e-03 5.7205504801916126e-03 0.0000000000000000e+00  1.5891466542924926e-03 5.6096881601138621e-03 0.0000000000000000e+00  8.8627211841700137e-04 5.5406737446615150e-03 0.0000000000000000e+00  1.8235174660109147e-04 5.5143842404759480e-03 0.0000000000000000e+00  -5.2143021892531757e-04 5.5303446308901973e-03 0.0000000000000000e+00  -1.2240452375356914e-03 5.5876806094235665e-03 0.0000000000000000e+00  -1.9249536928652245e-03 5.6869712227327601e-03 0.0000000000000000e+00  -2.6228959981117765e-03 5.8287806117594942e-03 0.0000000000000000e+00  -3.3171880156955438e-03 6.0133557761377458e-03 0.0000000000000000e+00  -4.0065507912119486e-03 6.2403482120241592e-03 0.0000000000000000e+00  -4.6902570354760021e-03 6.5102241577372436e-03 0.0000000000000000e+00  -5.3670315144625927e-03 6.8227600598623640e-03 0.0000000000000000e+00  -6.0359891120295751e-03 7.1786786994403832e-03 0.0000000000000000e+00  -6.6958209355224606e-03 7.5776804782280967e-03 0.0000000000000000e+00  -7.3450070825613178e-03 8.0213518813350791e-03 0.0000000000000000e+00  -7.9827409208455147e-03 8.5086605542245806e-03 0.0000000000000000e+00  -8.6068605953574517e-03 9.0403577451253804e-03 0.0000000000000000e+00  -9.2162421386142446e-03 9.6167768600442481e-03 0.0000000000000000e+00  -9.8092295455629343e-03 1.0237792143166518e-02 0.0000000000000000e+00  -1.0383627785079629e-02 1.0903706526822829e-02 0.0000000000000000e+00  -1.0938314710251624e-02 1.1615171123291430e-02 0.0000000000000000e+00  -1.1470142536322305e-02 1.2372091716460407e-02 0.0000000000000000e+00  -1.1978316081427362e-02 1.3174017498305863e-02 0.0000000000000000e+00  -1.2459294233259817e-02 1.4020894344157684e-02 0.0000000000000000e+00  -1.2911544984832624e-02 1.4913180539316452e-02 0.0000000000000000e+00  -1.3332473756568050e-02 1.5848396473439046e-02 0.0000000000000000e+00  -1.3719199062191571e-02 1.6826717410005645e-02 0.0000000000000000e+00  -1.4069497060502844e-02 1.7848349438727325e-02 0.0000000000000000e+00  -1.4379818261695902e-02 1.8911198704096320e-02 0.0000000000000000e+00  -1.4648364323374574e-02 2.0014041817482342e-02 0.0000000000000000e+00  -1.4870930616191009e-02 2.1156131483551957e-02 0.0000000000000000e+00  -1.5045623874946616e-02 2.2333069137424590e-02 0.0000000000000000e+00  -1.5169047465866278e-02 2.3544852558100529e-02 0.0000000000000000e+00  -1.5238056796469800e-02 2.4788278965779353e-02 0.0000000000000000e+00  -1.5250088458083169e-02 2.6060198441680511e-02 0.0000000000000000e+00  -1.5201824913586369e-02 2.7356958732885170e-02 0.0000000000000000e+00  -1.5091268671607112e-02 2.8675427568382685e-02 0.0000000000000000e+00  -1.4914548459613002e-02 3.0012034949211196e-02 0.0000000000000000e+00  -1.4670730014522406e-02 3.1360179420324444e-02 0.0000000000000000e+00  -1.4356975500163346e-02 3.2716509499225457e-02 0.0000000000000000e+00  -1.3971121987483837e-02 3.4076496105510563e-02 0.0000000000000000e+00  -1.3511954079263106e-02 3.5433000091472627e-02 0.0000000000000000e+00  -1.2978556042090432e-02 3.6780361802086770e-02 0.0000000000000000e+00  -1.2370040401424526e-02 3.8112171881190822e-02 0.0000000000000000e+00  -1.1686547380316681e-02 3.9422623275396002e-02 0.0000000000000000e+00  -1.0926956138083034e-02 4.0705911812080296e-02 0.0000000000000000e+00  -1.0093700707143372e-02 4.1953675438673281e-02 0.0000000000000000e+00  -9.1876973115892907e-03 4.3159348357386551e-02 0.0000000000000000e+00  -8.2101607478115082e-03 4.4317564688780620e-02 0.0000000000000000e+00  -7.1659332551364851e-03 4.5418850180796846e-02 0.0000000000000000e+00  -6.0558929394582970e-03 4.6459310631206778e-02 0.0000000000000000e+00  -4.8853698784766912e-03 4.7431340769457882e-02 0.0000000000000000e+00  -3.6591339565347925e-03 4.8328987450408568e-02 0.0000000000000000e+00  -2.7148512897670340e-03 5.0482402149594915e-02 0.0000000000000000e+00  -3.0731156547343171e-03 5.1887021405582615e-02 0.0000000000000000e+00  -3.4566851348770168e-03 5.3368352751415736e-02 0.0000000000000000e+00  -3.8689228656849711e-03 5.4928649377910706e-02 0.0000000000000000e+00  -4.3109700942169527e-03 5.6575836335511304e-02 0.0000000000000000e+00  -4.7885184208680022e-03 5.8313629410619822e-02 0.0000000000000000e+00  -5.2988646105608253e-03 6.0148972965907127e-02 0.0000000000000000e+00  -5.8516453758782764e-03 6.2089197175319959e-02 0.0000000000000000e+00  -6.4490914737913652e-03 6.4139558428382884e-02 0.0000000000000000e+00  -7.0919808633821690e-03 6.6309641501775290e-02 0.0000000000000000e+00  -7.7883729221144551e-03 6.8606205662979106e-02 0.0000000000000000e+00  -8.5460738429789102e-03 7.1035409199901867e-02 0.0000000000000000e+00  -9.3702682919379315e-03 7.3607133592336338e-02 0.0000000000000000e+00  -1.0270983772551309e-02 7.6322942830512566e-02 0.0000000000000000e+00  -1.1252689330085931e-02 7.9192814394453317e-02 0.0000000000000000e+00  -1.2324975681831919e-02 8.2220045565402688e-02 0.0000000000000000e+00  -1.3499253837400679e-02 8.5399133389800361e-02 0.0000000000000000e+00  -1.4772560879683424e-02 8.8733848590848097e-02 0.0000000000000000e+00  -1.6141147070518932e-02 9.2205345795420154e-02 0.0000000000000000e+00  -1.7586978685175506e-02 9.5790544110767789e-02 0.0000000000000000e+00  -1.9054003895268519e-02 9.9460530818909848e-02 0.0000000000000000e+00  -2.0452340907566556e-02 1.0315795300423561e-01 0.0000000000000000e+00  -2.1607516598863973e-02 1.0681963610936340e-01 0.0000000000000000e+00  -2.2266309048571156e-02 1.1036091756439619e-01 0.0000000000000000e+00  -2.2036558833041068e-02 1.1367466960623519e-01 0.0000000000000000e+00  -2.0389214049208820e-02 1.1666630218835930e-01 0.0000000000000000e+00  -1.6712180126795793e-02 1.1922428197287624e-01 0.0000000000000000e+00  -1.0386225075715131e-02 1.2129088900030013e-01 0.0000000000000000e+00  -1.0252180008062323e-03 1.2284823366523455e-01 0.0000000000000000e+00  1.1295744811916711e-02 1.2386520139921228e-01 0.0000000000000000e+00  2.5756044256847570e-02 1.2434493730958318e-01 0.0000000000000000e+00  4.0793892605965498e-02 1.2413507604932367e-01 0.0000000000000000e+00  5.4163081992246863e-02 1.2299474267367132e-01 0.0000000000000000e+00  6.3028442009013294e-02 1.2056813033673773e-01 0.0000000000000000e+00  6.4231221665920296e-02 1.1655710824826426e-01 0.0000000000000000e+00  5.4438663528433746e-02 1.1138741285360711e-01 0.0000000000000000e+00  3.2328490127723035e-02 1.0631752538852073e-01 0.0000000000000000e+00  6.2746477562244040e-04 1.0404580712802741e-01 0.0000000000000000e+00  -3.1350606855948246e-02 1.0707566326707291e-01 0.0000000000000000e+00  -5.2456814150822054e-02 1.1662404716167492e-01 0.0000000000000000e+00  -5.7481581853865850e-02 1.3082774383746187e-01 0.0000000000000000e+00  -5.1653167672853717e-02 1.4545924759310583e-01 0.0000000000000000e+00  -4.3377769331210556e-02 1.5701077235914654e-01 0.0000000000000000e+00  -3.5943271708002524e-02 1.6514903594737854e-01 0.0000000000000000e+00  -2.9598421557800542e-02 1.7042669285997522e-01 0.0000000000000000e+00  -2.4036617825259367e-02 1.7354660978616590e-01 0.0000000000000000e+00  -1.9058971474015786e-02 1.7493623706574293e-01 0.0000000000000000e+00  -1.4648195403189530e-02 1.7495965277897030e-01 0.0000000000000000e+00  -1.0678873260954158e-02 1.7388495101869411e-01 0.0000000000000000e+00  -7.1335297258040995e-03 1.7190903704136529e-01 0.0000000000000000e+00  -3.9915365255659271e-03 1.6918753993019189e-01 0.0000000000000000e+00  -1.2440148969557704e-03 1.6588109520257624e-01 0.0000000000000000e+00  1.1362801882608552e-03 1.6211503881548583e-01 0.0000000000000000e+00  3.1873059060073955e-03 1.5798780650161592e-01 0.0000000000000000e+00  4.9055420942355991e-03 1.5359326229297623e-01 0.0000000000000000e+00  6.3308578466327340e-03 1.4901185594237312e-01 0.0000000000000000e+00  7.4776093088152768e-03 1.4431880299967076e-01 0.0000000000000000e+00  8.3674878702871911e-03 1.3957889473099647e-01 0.0000000000000000e+00  9.0374151766920759e-03 1.3483279062838588e-01 0.0000000000000000e+00  9.5073573454009953e-03 1.3013026109135428e-01 0.0000000000000000e+00  9.8108250621223077e-03 1.2549637513455569e-01 0.0000000000000000e+00  9.9652530948920078e-03 1.2096582889277323e-01 0.0000000000000000e+00  9.9970309503469544e-03 1.1655615299133018e-01 0.0000000000000000e+00  9.9242822919579417e-03 1.1228300252799224e-01 0.0000000000000000e+00  9.7662400440133718e-03 1.0815759234713820e-01 0.0000000000000000e+00  9.5402272802163086e-03 1.0418395794539589e-01 0.0000000000000000e+00  9.2604886002455138e-03 1.0037220733381712e-01 0.0000000000000000e+00  8.9414612961089181e-03 9.6712638244928692e-02 0.0000000000000000e+00  8.5900475616677106e-03 9.3216643936263846e-02 0.0000000000000000e+00  8.2171505859693038e-03 8.9871189419094763e-02 0.0000000000000000e+00  7.8279869762768774e-03 8.6678699386440489e-02 0.0000000000000000e+00  7.4259859501966813e-03 8.3634082775442695e-02 0.0000000000000000e+00  7.0181015162401319e-03 8.0733589213894064e-02 0.0000000000000000e+00  6.6107999064029420e-03 7.7967960367220160e-02 0.0000000000000000e+00  6.2060120403748878e-03 7.5331282123660845e-02 0.0000000000000000e+00  5.8041312203359220e-03 7.2822559963620373e-02 0.0000000000000000e+00  5.4115194076905264e-03 7.0429604746821334e-02 0.0000000000000000e+00  5.0229768274774010e-03 6.8151481165319383e-02 0.0000000000000000e+00  4.6453702279582705e-03 6.5979422708033059e-02 0.0000000000000000e+00  4.2785454859500874e-03 6.3909931383584792e-02 0.0000000000000000e+00  3.9220684301974097e-03 6.1937278973198159e-02 0.0000000000000000e+00  3.5770198793223505e-03 6.0055372824234260e-02 0.0000000000000000e+00  3.2442613329796313e-03 5.8261331353275395e-02 0.0000000000000000e+00  2.9243385035346557e-03 5.6547911559414049e-02 0.0000000000000000e+00  2.6156331695501036e-03 5.4913551017843183e-02 0.0000000000000000e+00  2.3200155280542045e-03 5.3351725410465616e-02 0.0000000000000000e+00  2.0378482868384381e-03 5.1860378426272301e-02 0.0000000000000000e+00  1.7675419437374945e-03 5.0434647175259195e-02 0.0000000000000000e+00  1.5098272298697964e-03 4.9072197198898881e-02 0.0000000000000000e+00  1.2639262620571822e-03 4.7768758672773554e-02 0.0000000000000000e+00  1.0308928020742877e-03 4.6522320944797947e-02 0.0000000000000000e+00  8.1041249622457764e-04 4.5328908842601399e-02 0.0000000000000000e+00  6.0137078405373431e-04 4.4186853974768826e-02 0.0000000000000000e+00  4.0360989191050555e-04 4.3092870238704756e-02 0.0000000000000000e+00  2.1828812674258962e-04 4.2044565644932752e-02 0.0000000000000000e+00  4.3693222612941024e-05 4.1040640184612100e-02 0.0000000000000000e+00  -1.1943504964216398e-04 4.0078098666986813e-02 0.0000000000000000e+00  -2.7129251241205671e-04 3.9155575849142865e-02 0.0000000000000000e+00  -4.1348183398049024e-04 3.8271352496319452e-02 0.0000000000000000e+00  2.7255206134002444e-04 3.6940176429655837e-02 0.0000000000000000e+00  1.0661358146397495e-03 3.6411409444871125e-02 0.0000000000000000e+00  1.8328053332454671e-03 3.5838869256971287e-02 0.0000000000000000e+00  2.5694700051523195e-03 3.5225353754412769e-02 0.0000000000000000e+00  3.2746105685046690e-03 3.4572922308787619e-02 0.0000000000000000e+00  3.9455573721158639e-03 3.3885056462219204e-02 0.0000000000000000e+00  4.5812486227876049e-03 3.3163604959477559e-02 0.0000000000000000e+00  5.1793315213421662e-03 3.2412140268485941e-02 0.0000000000000000e+00  5.7386697088007499e-03 3.1633619006803115e-02 0.0000000000000000e+00  6.2586804198134218e-03 3.0830860259279579e-02 0.0000000000000000e+00  6.7377728030001615e-03 3.0007122449864410e-02 0.0000000000000000e+00  7.1752914501438080e-03 2.9166153882454332e-02 0.0000000000000000e+00  7.5707942645863906e-03 2.8310627986834109e-02 0.0000000000000000e+00  7.9235538407703456e-03 2.7444551089095645e-02 0.0000000000000000e+00  8.2343301346627651e-03 2.6569898060874453e-02 0.0000000000000000e+00  8.5024651321819224e-03 2.5690725712935663e-02 0.0000000000000000e+00  8.7284072299973758e-03 2.4810239153765155e-02 0.0000000000000000e+00  8.9128007105818696e-03 2.3930960580264043e-02 0.0000000000000000e+00  9.0561865628098568e-03 2.3055601007382777e-02 0.0000000000000000e+00  9.1590287580418234e-03 2.2187718323465781e-02 0.0000000000000000e+00  9.2225630515770599e-03 2.1329318190885585e-02 0.0000000000000000e+00  9.2475892884132955e-03 2.0483349062024796e-02 0.0000000000000000e+00  9.2351644718820791e-03 1.9652207561598738e-02 0.0000000000000000e+00  9.1870150777092936e-03 1.8837282679721762e-02 0.0000000000000000e+00  9.1040303425280033e-03 1.8041247698629234e-02 0.0000000000000000e+00  8.9875943964128416e-03 1.7265887106289873e-02 0.0000000000000000e+00  8.8393045651085876e-03 1.6513065238240584e-02 0.0000000000000000e+00  8.6607335187641240e-03 1.5783836602434567e-02 0.0000000000000000e+00  8.4531426309179935e-03 1.5080665895384874e-02 0.0000000000000000e+00  8.2179500347920528e-03 1.4404230941125831e-02 0.0000000000000000e+00  7.9569981121519473e-03 1.3755781403402058e-02 0.0000000000000000e+00  7.6716109980774190e-03 1.3136249925511259e-02 0.0000000000000000e+00  7.3635054112620724e-03 1.2546366266430523e-02 0.0000000000000000e+00  7.0339404781840798e-03 1.1987513980841026e-02 0.0000000000000000e+00  6.6846035902457038e-03 1.1460129530885632e-02 0.0000000000000000e+00  6.3169404096040582e-03 1.0965188225748821e-02 0.0000000000000000e+00  5.9321867134449150e-03 1.0502407475839602e-02 0.0000000000000000e+00  5.5320212417298417e-03 1.0072989910674604e-02 0.0000000000000000e+00  5.1175333525933916e-03 9.6770562877768231e-03 0.0000000000000000e+00  4.6903938999822243e-03 9.3145571772512200e-03 0.0000000000000000e+00  4.2516655866603080e-03 8.9863995471779548e-03 0.0000000000000000e+00  3.8025502069769786e-03 8.6931467655410773e-03 0.0000000000000000e+00  3.3445553781418277e-03 8.4337990437711556e-03 0.0000000000000000e+00  2.8786524832846590e-03 8.2091722010540595e-03 0.0000000000000000e+00  2.4061274538038908e-03 8.0192031877367332e-03 0.0000000000000000e+00  1.9282358678442044e-03 7.8640795652246565e-03 0.0000000000000000e+00  1.4458820312787896e-03 7.7434186127297239e-03 0.0000000000000000e+00  9.6060519673456376e-04 7.6579997112698967e-03 0.0000000000000000e+00  4.7305526934426185e-04 7.6077915035684908e-03 0.0000000000000000e+00  -1.5266573901412276e-05 7.5921544160545132e-03 0.0000000000000000e+00  -5.0345829433003433e-04 7.6114083807281826e-03 0.0000000000000000e+00  -9.9048280094552279e-04 7.6659807764384484e-03 0.0000000000000000e+00  -1.4749993648114986e-03 7.7555749570490306e-03 0.0000000000000000e+00  -1.9560620272311147e-03 7.8798007657297532e-03 0.0000000000000000e+00  -2.4324410830336004e-03 8.0386075141600771e-03 0.0000000000000000e+00  -2.9032158456872180e-03 8.2321950669702482e-03 0.0000000000000000e+00  -3.3669478780865357e-03 8.4602767173890814e-03 0.0000000000000000e+00  -3.8226611030438614e-03 8.7231203726257905e-03 0.0000000000000000e+00  -4.2690153810696074e-03 9.0201419591406252e-03 0.0000000000000000e+00  -4.7047332248089865e-03 9.3515935906127376e-03 0.0000000000000000e+00  -5.1288420736631266e-03 9.7163969015743798e-03 0.0000000000000000e+00  -5.5396185066949634e-03 1.0115132026724444e-02 0.0000000000000000e+00  -5.9361445774372898e-03 1.0547070416521306e-02 0.0000000000000000e+00  -6.3168219150216880e-03 1.1011871143295994e-02 0.0000000000000000e+00  -6.6802310190966349e-03 1.1509080195246471e-02 0.0000000000000000e+00  -7.0250949058971576e-03 1.2038197069383845e-02 0.0000000000000000e+00  -7.3497745546691855e-03 1.2598392913789320e-02 0.0000000000000000e+00  -7.6532448736954337e-03 1.3188673640336362e-02 0.0000000000000000e+00  -7.9333216878053406e-03 1.3808833829498792e-02 0.0000000000000000e+00  -8.1892335927790383e-03 1.4457475078522049e-02 0.0000000000000000e+00  -8.4190658574076517e-03 1.5133446348800190e-02 0.0000000000000000e+00  -8.6212648885825444e-03 1.5836377732739142e-02 0.0000000000000000e+00  -8.7944620807053394e-03 1.6564744796729921e-02 0.0000000000000000e+00  -8.9372570108835567e-03 1.7316157457531341e-02 0.0000000000000000e+00  -9.0483529189799225e-03 1.8089693597337992e-02 0.0000000000000000e+00  -9.1257149572458798e-03 1.8883388690184182e-02 0.0000000000000000e+00  -9.1690340689058302e-0