<?xml version="1.0"?>
<VTKFile type="UnstructuredGrid"  version="0.1"  >
<UnstructuredGrid>
<Piece  NumberOfPoints="16275" NumberOfCells="32468">
<Points>
<DataArray  type="Float64"  NumberOfComponents="3"  format="ascii">-0.5 0.5 0  0.5 0.5 0  0.5 -0.5 0  -0.5 -0.5 0  -1 1 0  1 1 0  1 -1 0  -1 -1 0  -0.4900000000000277 0.5 0  -0.4800000000000555 0.5 0  -0.4700000000000832 0.5 0  -0.4600000000001109 0.5 0  -0.4500000000001387 0.5 0  -0.4400000000001664 0.5 0  -0.4300000000001942 0.5 0  -0.4200000000002219 0.5 0  -0.4100000000002497 0.5 0  -0.4000000000002774 0.5 0  -0.3900000000003052 0.5 0  -0.3800000000003328 0.5 0  -0.3700000000003606 0.5 0  -0.3600000000003883 0.5 0  -0.3500000000004161 0.5 0  -0.3400000000004438 0.5 0  -0.3300000000004716 0.5 0  -0.3200000000004993 0.5 0  -0.3100000000005271 0.5 0  -0.3000000000005548 0.5 0  -0.2900000000005825 0.5 0  -0.2800000000006103 0.5 0  -0.2700000000006381 0.5 0  -0.2600000000006658 0.5 0  -0.2500000000006935 0.5 0  -0.2400000000007212 0.5 0  -0.230000000000749 0.5 0  -0.2200000000007767 0.5 0  -0.2100000000008044 0.5 0  -0.2000000000008322 0.5 0  -0.19000000000086 0.5 0  -0.1800000000008877 0.5 0  -0.1700000000009154 0.5 0  -0.1600000000009431 0.5 0  -0.1500000000009709 0.5 0  -0.1400000000009986 0.5 0  -0.1300000000010264 0.5 0  -0.1200000000010541 0.5 0  -0.1100000000010818 0.5 0  -0.1000000000011096 0.5 0  -0.09000000000113734 0.5 0  -0.08000000000116503 0.5 0  -0.07000000000119283 0.5 0  -0.06000000000122058 0.5 0  -0.05000000000124827 0.5 0  -0.04000000000127607 0.5 0  -0.03000000000130376 0.5 0  -0.02000000000133151 0.5 0  -0.01000000000135925 0.5 0  -1.376121439022882e-12 0.5 0  0.009999999998640763 0.5 0  0.01999999999866864 0.5 0  0.02999999999869629 0.5 0  0.03999999999872406 0.5 0  0.04999999999875182 0.5 0  0.05999999999877947 0.5 0  0.06999999999880724 0.5 0  0.079999999998835 0.5 0  0.08999999999886266 0.5 0  0.09999999999889042 0.5 0  0.1099999999989182 0.5 0  0.1199999999989459 0.5 0  0.1299999999989737 0.5 0  0.1399999999990014 0.5 0  0.1499999999990291 0.5 0  0.1599999999990568 0.5 0  0.1699999999990847 0.5 0  0.1799999999991124 0.5 0  0.1899999999991401 0.5 0  0.1999999999991678 0.5 0  0.2099999999991955 0.5 0  0.2199999999992234 0.5 0  0.2299999999992511 0.5 0  0.2399999999992788 0.5 0  0.2499999999993066 0.5 0  0.2599999999993342 0.5 0  0.269999999999362 0.5 0  0.2799999999993897 0.5 0  0.2899999999994175 0.5 0  0.2999999999994452 0.5 0  0.3099999999994729 0.5 0  0.3199999999995007 0.5 0  0.3299999999995284 0.5 0  0.3399999999995562 0.5 0  0.3499999999995839 0.5 0  0.3599999999996116 0.5 0  0.3699999999996393 0.5 0  0.379999999999667 0.5 0  0.3899999999996949 0.5 0  0.3999999999997226 0.5 0  0.4099999999997503 0.5 0  0.419999999999778 0.5 0  0.4299999999998058 0.5 0  0.4399999999998336 0.5 0  0.4499999999998613 0.5 0  0.4599999999998891 0.5 0  0.4699999999999167 0.5 0  0.4799999999999445 0.5 0  0.4899999999999722 0.5 0  0.5 0.4900000000000277 0  0.5 0.4800000000000555 0  0.5 0.4700000000000832 0  0.5 0.4600000000001109 0  0.5 0.4500000000001387 0  0.5 0.4400000000001664 0  0.5 0.4300000000001942 0  0.5 0.4200000000002219 0  0.5 0.4100000000002497 0  0.5 0.4000000000002774 0  0.5 0.3900000000003052 0  0.5 0.3800000000003328 0  0.5 0.3700000000003606 0  0.5 0.3600000000003883 0  0.5 0.3500000000004161 0  0.5 0.3400000000004438 0  0.5 0.3300000000004716 0  0.5 0.3200000000004993 0  0.5 0.3100000000005271 0  0.5 0.3000000000005548 0  0.5 0.2900000000005825 0  0.5 0.2800000000006103 0  0.5 0.2700000000006381 0  0.5 0.2600000000006658 0  0.5 0.2500000000006935 0  0.5 0.2400000000007212 0  0.5 0.230000000000749 0  0.5 0.2200000000007767 0  0.5 0.2100000000008044 0  0.5 0.2000000000008322 0  0.5 0.19000000000086 0  0.5 0.1800000000008877 0  0.5 0.1700000000009154 0  0.5 0.1600000000009431 0  0.5 0.1500000000009709 0  0.5 0.1400000000009986 0  0.5 0.1300000000010264 0  0.5 0.1200000000010541 0  0.5 0.1100000000010818 0  0.5 0.1000000000011096 0  0.5 0.09000000000113734 0  0.5 0.08000000000116503 0  0.5 0.07000000000119283 0  0.5 0.06000000000122058 0  0.5 0.05000000000124827 0  0.5 0.04000000000127607 0  0.5 0.03000000000130376 0  0.5 0.02000000000133151 0  0.5 0.01000000000135925 0  0.5 1.376121439022882e-12 0  0.5 -0.009999999998640763 0  0.5 -0.01999999999866864 0  0.5 -0.02999999999869629 0  0.5 -0.03999999999872406 0  0.5 -0.04999999999875182 0  0.5 -0.05999999999877947 0  0.5 -0.06999999999880724 0  0.5 -0.079999999998835 0  0.5 -0.08999999999886266 0  0.5 -0.09999999999889042 0  0.5 -0.1099999999989182 0  0.5 -0.1199999999989459 0  0.5 -0.1299999999989737 0  0.5 -0.1399999999990014 0  0.5 -0.1499999999990291 0  0.5 -0.1599999999990568 0  0.5 -0.1699999999990847 0  0.5 -0.1799999999991124 0  0.5 -0.1899999999991401 0  0.5 -0.1999999999991678 0  0.5 -0.2099999999991955 0  0.5 -0.2199999999992234 0  0.5 -0.2299999999992511 0  0.5 -0.2399999999992788 0  0.5 -0.2499999999993066 0  0.5 -0.2599999999993342 0  0.5 -0.269999999999362 0  0.5 -0.2799999999993897 0  0.5 -0.2899999999994175 0  0.5 -0.2999999999994452 0  0.5 -0.3099999999994729 0  0.5 -0.3199999999995007 0  0.5 -0.3299999999995284 0  0.5 -0.3399999999995562 0  0.5 -0.3499999999995839 0  0.5 -0.3599999999996116 0  0.5 -0.3699999999996393 0  0.5 -0.379999999999667 0  0.5 -0.3899999999996949 0  0.5 -0.3999999999997226 0  0.5 -0.4099999999997503 0  0.5 -0.419999999999778 0  0.5 -0.4299999999998058 0  0.5 -0.4399999999998336 0  0.5 -0.4499999999998613 0  0.5 -0.4599999999998891 0  0.5 -0.4699999999999167 0  0.5 -0.4799999999999445 0  0.5 -0.4899999999999722 0  0.4900000000000277 -0.5 0  0.4800000000000555 -0.5 0  0.4700000000000832 -0.5 0  0.4600000000001109 -0.5 0  0.4500000000001387 -0.5 0  0.4400000000001664 -0.5 0  0.4300000000001942 -0.5 0  0.4200000000002219 -0.5 0  0.4100000000002497 -0.5 0  0.4000000000002774 -0.5 0  0.3900000000003052 -0.5 0  0.3800000000003328 -0.5 0  0.3700000000003606 -0.5 0  0.3600000000003883 -0.5 0  0.3500000000004161 -0.5 0  0.3400000000004438 -0.5 0  0.3300000000004716 -0.5 0  0.3200000000004993 -0.5 0  0.3100000000005271 -0.5 0  0.3000000000005548 -0.5 0  0.2900000000005825 -0.5 0  0.2800000000006103 -0.5 0  0.2700000000006381 -0.5 0  0.2600000000006658 -0.5 0  0.2500000000006935 -0.5 0  0.2400000000007212 -0.5 0  0.230000000000749 -0.5 0  0.2200000000007767 -0.5 0  0.2100000000008044 -0.5 0  0.2000000000008322 -0.5 0  0.19000000000086 -0.5 0  0.1800000000008877 -0.5 0  0.1700000000009154 -0.5 0  0.1600000000009431 -0.5 0  0.1500000000009709 -0.5 0  0.1400000000009986 -0.5 0  0.1300000000010264 -0.5 0  0.1200000000010541 -0.5 0  0.1100000000010818 -0.5 0  0.1000000000011096 -0.5 0  0.09000000000113734 -0.5 0  0.08000000000116503 -0.5 0  0.07000000000119283 -0.5 0  0.06000000000122058 -0.5 0  0.05000000000124827 -0.5 0  0.04000000000127607 -0.5 0  0.03000000000130376 -0.5 0  0.02000000000133151 -0.5 0  0.01000000000135925 -0.5 0  1.376121439022882e-12 -0.5 0  -0.009999999998640763 -0.5 0  -0.01999999999866864 -0.5 0  -0.02999999999869629 -0.5 0  -0.03999999999872406 -0.5 0  -0.04999999999875182 -0.5 0  -0.05999999999877947 -0.5 0  -0.06999999999880724 -0.5 0  -0.079999999998835 -0.5 0  -0.08999999999886266 -0.5 0  -0.09999999999889042 -0.5 0  -0.1099999999989182 -0.5 0  -0.1199999999989459 -0.5 0  -0.1299999999989737 -0.5 0  -0.1399999999990014 -0.5 0  -0.1499999999990291 -0.5 0  -0.1599999999990568 -0.5 0  -0.1699999999990847 -0.5 0  -0.1799999999991124 -0.5 0  -0.1899999999991401 -0.5 0  -0.1999999999991678 -0.5 0  -0.2099999999991955 -0.5 0  -0.2199999999992234 -0.5 0  -0.2299999999992511 -0.5 0  -0.2399999999992788 -0.5 0  -0.2499999999993066 -0.5 0  -0.2599999999993342 -0.5 0  -0.269999999999362 -0.5 0  -0.2799999999993897 -0.5 0  -0.2899999999994175 -0.5 0  -0.2999999999994452 -0.5 0  -0.3099999999994729 -0.5 0  -0.3199999999995007 -0.5 0  -0.3299999999995284 -0.5 0  -0.3399999999995562 -0.5 0  -0.3499999999995839 -0.5 0  -0.3599999999996116 -0.5 0  -0.3699999999996393 -0.5 0  -0.379999999999667 -0.5 0  -0.3899999999996949 -0.5 0  -0.3999999999997226 -0.5 0  -0.4099999999997503 -0.5 0  -0.419999999999778 -0.5 0  -0.4299999999998058 -0.5 0  -0.4399999999998336 -0.5 0  -0.4499999999998613 -0.5 0  -0.4599999999998891 -0.5 0  -0.4699999999999167 -0.5 0  -0.4799999999999445 -0.5 0  -0.4899999999999722 -0.5 0  -0.5 -0.4900000000000277 0  -0.5 -0.4800000000000555 0  -0.5 -0.4700000000000832 0  -0.5 -0.4600000000001109 0  -0.5 -0.4500000000001387 0  -0.5 -0.4400000000001664 0  -0.5 -0.4300000000001942 0  -0.5 -0.4200000000002219 0  -0.5 -0.4100000000002497 0  -0.5 -0.4000000000002774 0  -0.5 -0.3900000000003052 0  -0.5 -0.3800000000003328 0  -0.5 -0.3700000000003606 0  -0.5 -0.3600000000003883 0  -0.5 -0.3500000000004161 0  -0.5 -0.3400000000004438 0  -0.5 -0.3300000000004716 0  -0.5 -0.3200000000004993 0  -0.5 -0.3100000000005271 0  -0.5 -0.3000000000005548 0  -0.5 -0.2900000000005825 0  -0.5 -0.2800000000006103 0  -0.5 -0.2700000000006381 0  -0.5 -0.2600000000006658 0  -0.5 -0.2500000000006935 0  -0.5 -0.2400000000007212 0  -0.5 -0.230000000000749 0  -0.5 -0.2200000000007767 0  -0.5 -0.2100000000008044 0  -0.5 -0.2000000000008322 0  -0.5 -0.19000000000086 0  -0.5 -0.1800000000008877 0  -0.5 -0.1700000000009154 0  -0.5 -0.1600000000009431 0  -0.5 -0.1500000000009709 0  -0.5 -0.1400000000009986 0  -0.5 -0.1300000000010264 0  -0.5 -0.1200000000010541 0  -0.5 -0.1100000000010818 0  -0.5 -0.1000000000011096 0  -0.5 -0.09000000000113734 0  -0.5 -0.08000000000116503 0  -0.5 -0.07000000000119283 0  -0.5 -0.06000000000122058 0  -0.5 -0.05000000000124827 0  -0.5 -0.04000000000127607 0  -0.5 -0.03000000000130376 0  -0.5 -0.02000000000133151 0  -0.5 -0.01000000000135925 0  -0.5 -1.376121439022882e-12 0  -0.5 0.009999999998640763 0  -0.5 0.01999999999866864 0  -0.5 0.02999999999869629 0  -0.5 0.03999999999872406 0  -0.5 0.04999999999875182 0  -0.5 0.05999999999877947 0  -0.5 0.06999999999880724 0  -0.5 0.079999999998835 0  -0.5 0.08999999999886266 0  -0.5 0.09999999999889042
[...]
<PointData  Vectors="f_27-0"> 
<DataArray  type="Float64"  Name="f_27-0"  NumberOfComponents="3" format="ascii">6.0198063749293323e-04 4.3610060275176277e-02 0.0000000000000000e+00  -9.0323593540029960e-04 4.3576932518756155e-02 0.0000000000000000e+00  3.9417384104759035e-04 4.1625539458596456e-02 0.0000000000000000e+00  -1.8387233354012251e-04 4.1600254168177225e-02 0.0000000000000000e+00  -1.7167008973114960e-03 6.7432563704372126e-03 0.0000000000000000e+00  1.8045081074615046e-03 6.5977043766303920e-03 0.0000000000000000e+00  -1.5670225601082609e-03 6.7803241204147380e-03 0.0000000000000000e+00  1.7000826701754218e-03 6.5782761467084137e-03 0.0000000000000000e+00  1.6523262248399617e-03 4.2991061109143386e-02 0.0000000000000000e+00  2.6657571927017928e-03 4.2309554939069453e-02 0.0000000000000000e+00  3.6423857429519267e-03 4.1569134888858127e-02 0.0000000000000000e+00  4.5786267641720899e-03 4.0773761099886702e-02 0.0000000000000000e+00  5.4687348501067483e-03 3.9926436601774008e-02 0.0000000000000000e+00  6.3130011045361154e-03 3.9031705093167460e-02 0.0000000000000000e+00  7.1063124707711513e-03 3.8093357614518424e-02 0.0000000000000000e+00  7.8483903205678069e-03 3.7116391097093950e-02 0.0000000000000000e+00  8.5357124242341799e-03 3.6106002414109967e-02 0.0000000000000000e+00  9.1671279528814202e-03 3.5064941893659912e-02 0.0000000000000000e+00  9.7432571009595757e-03 3.4000505871984006e-02 0.0000000000000000e+00  1.0261512507394349e-02 3.2916063268613634e-02 0.0000000000000000e+00  1.0722132899087525e-02 3.1815989745485891e-02 0.0000000000000000e+00  1.1125516805789120e-02 3.0704607701430107e-02 0.0000000000000000e+00  1.1470590907574255e-02 2.9588584557593705e-02 0.0000000000000000e+00  1.1759698697914499e-02 2.8470763634120343e-02 0.0000000000000000e+00  1.1992716664978371e-02 2.7354200168557642e-02 0.0000000000000000e+00  1.2170741429163679e-02 2.6244909504378564e-02 0.0000000000000000e+00  1.2295624786168292e-02 2.5146367417886582e-02 0.0000000000000000e+00  1.2368538781220552e-02 2.4061228109854421e-02 0.0000000000000000e+00  1.2391258798459415e-02 2.2993006215255570e-02 0.0000000000000000e+00  1.2365686652080942e-02 2.1944558887789480e-02 0.0000000000000000e+00  1.2294121737266199e-02 2.0918625697304870e-02 0.0000000000000000e+00  1.2177756294574160e-02 1.9918697342053131e-02 0.0000000000000000e+00  1.2018910481102457e-02 1.8945850108753562e-02 0.0000000000000000e+00  1.1821066593783462e-02 1.8002835884250803e-02 0.0000000000000000e+00  1.1584086530367365e-02 1.7091465371146294e-02 0.0000000000000000e+00  1.1312333517549168e-02 1.6213471412949987e-02 0.0000000000000000e+00  1.1006438436404541e-02 1.5368421971541535e-02 0.0000000000000000e+00  1.0669787259108230e-02 1.4559900202333696e-02 0.0000000000000000e+00  1.0302975183849155e-02 1.3787049968058731e-02 0.0000000000000000e+00  9.9098447788712133e-03 1.3051558057815549e-02 0.0000000000000000e+00  9.4909225040963798e-03 1.2355036434099758e-02 0.0000000000000000e+00  9.0491299286395762e-03 1.1697112531412797e-02 0.0000000000000000e+00  8.5855501839104207e-03 1.1077758744468598e-02 0.0000000000000000e+00  8.1018570131788873e-03 1.0495865094740360e-02 0.0000000000000000e+00  7.6014823367425285e-03 9.9561858656502123e-03 0.0000000000000000e+00  7.0827781389486795e-03 9.4554486135618385e-03 0.0000000000000000e+00  6.5511983536445679e-03 8.9935323282177623e-03 0.0000000000000000e+00  6.0047111324840891e-03 8.5731857600493122e-03 0.0000000000000000e+00  5.4482267422547755e-03 8.1918585083067871e-03 0.0000000000000000e+00  4.8805036076189348e-03 7.8505471324981368e-03 0.0000000000000000e+00  4.3032329324778594e-03 7.5491250596722171e-03 0.0000000000000000e+00  3.7185866766743479e-03 7.2868290085547453e-03 0.0000000000000000e+00  3.1266905822366861e-03 7.0654751315375507e-03 0.0000000000000000e+00  2.5289935534951731e-03 6.8820734944825398e-03 0.0000000000000000e+00  1.9274689921345387e-03 6.7393589525895047e-03 0.0000000000000000e+00  1.3220520501655108e-03 6.6352794162434598e-03 0.0000000000000000e+00  7.1619610673640097e-04 6.5706146333407373e-03 0.0000000000000000e+00  1.0657130842875544e-04 6.5469057344702090e-03 0.0000000000000000e+00  -5.0231622309413132e-04 6.5611849811845792e-03 0.0000000000000000e+00  -1.1097705092153922e-03 6.6147356220712166e-03 0.0000000000000000e+00  -1.7155744505996586e-03 6.7073691980904767e-03 0.0000000000000000e+00  -2.3183894317152479e-03 6.8401350895241492e-03 0.0000000000000000e+00  -2.9172539229628384e-03 7.0124586015452902e-03 0.0000000000000000e+00  -3.5104339638448410e-03 7.2241169586059351e-03 0.0000000000000000e+00  -4.0979084359884432e-03 7.4751522731532991e-03 0.0000000000000000e+00  -4.6769063396152810e-03 7.7662311847420448e-03 0.0000000000000000e+00  -5.2481815515609325e-03 8.0978335321771552e-03 0.0000000000000000e+00  -5.8096089714549512e-03 8.4684087478313110e-03 0.0000000000000000e+00  -6.3589141160358634e-03 8.8790179846580837e-03 0.0000000000000000e+00  -6.8961472476395591e-03 9.3297707336624930e-03 0.0000000000000000e+00  -7.4190911318442977e-03 9.8193080394441568e-03 0.0000000000000000e+00  -7.9257024423985776e-03 1.0349284064258793e-02 0.0000000000000000e+00  -8.4156326005138376e-03 1.0919237826347836e-02 0.0000000000000000e+00  -8.8859026954631257e-03 1.1527796465858957e-02 0.0000000000000000e+00  -9.3359037995876786e-03 1.2175932455422429e-02 0.0000000000000000e+00  -9.7626338601118946e-03 1.2863138298873499e-02 0.0000000000000000e+00  -1.0165707574702932e-02 1.3587954162462475e-02 0.0000000000000000e+00  -1.0541474678107659e-02 1.4350742811427206e-02 0.0000000000000000e+00  -1.0888169572548033e-02 1.5151523981217861e-02 0.0000000000000000e+00  -1.1205881728918244e-02 1.5986751008257874e-02 0.0000000000000000e+00  -1.1489489023769540e-02 1.6855963511774995e-02 0.0000000000000000e+00  -1.1739746868127607e-02 1.7759190916693857e-02 0.0000000000000000e+00  -1.1950508713390975e-02 1.8695384835210715e-02 0.0000000000000000e+00  -1.2125142021114492e-02 1.9662203146886957e-02 0.0000000000000000e+00  -1.2256201568547426e-02 2.0657250846030584e-02 0.0000000000000000e+00  -1.2344472189869803e-02 2.1676793028620658e-02 0.0000000000000000e+00  -1.2386285907889873e-02 2.2721953375357880e-02 0.0000000000000000e+00  -1.2380896417865776e-02 2.3787665398189026e-02 0.0000000000000000e+00  -1.2325989429147626e-02 2.4871902425522199e-02 0.0000000000000000e+00  -1.2219381943031973e-02 2.5969899149735194e-02 0.0000000000000000e+00  -1.2059738127227439e-02 2.7080208359053153e-02 0.0000000000000000e+00  -1.1845178456211043e-02 2.8199418710491312e-02 0.0000000000000000e+00  -1.1575580189498473e-02 2.9321256664500018e-02 0.0000000000000000e+00  -1.1249108792226696e-02 3.0443073571960941e-02 0.0000000000000000e+00  -1.0864704681183793e-02 3.1561086553374279e-02 0.0000000000000000e+00  -1.0422493561885692e-02 3.2669895204755627e-02 0.0000000000000000e+00  -9.9222069445399561e-03 3.3765248827731485e-02 0.0000000000000000e+00  -9.3643875329141868e-03 3.4841533465490702e-02 0.0000000000000000e+00  -8.7488436888428465e-03 3.5895112519114210e-02 0.0000000000000000e+00  -8.0764348882743208e-03 3.6921167677852119e-02 0.0000000000000000e+00  -7.3493348567644735e-03 3.7914244426497073e-02 0.0000000000000000e+00  -6.5689240661723717e-03 3.8870529590856642e-02 0.0000000000000000e+00  -5.7370432941759898e-03 3.9785497170979067e-02 0.0000000000000000e+00  -4.8573833074000384e-03 4.0652390430498460e-02 0.0000000000000000e+00  -3.9294346932833299e-03 4.1469536140345438e-02 0.0000000000000000e+00  -2.9596430452887750e-03 4.2230928407839027e-02 0.0000000000000000e+00  -1.9507586757249987e-03 4.2934341779046377e-02 0.0000000000000000e+00  -1.1308025227278727e-03 4.4666257640563235e-02 0.0000000000000000e+00  -1.3725671510178407e-03 4.5803247029332000e-02 0.0000000000000000e+00  -1.6305002747313839e-03 4.6998612197100845e-02 0.0000000000000000e+00  -1.9041124076141060e-03 4.8250815038835229e-02 0.0000000000000000e+00  -2.1952917012663751e-03 4.9566340738792673e-02 0.0000000000000000e+00  -2.5103599175090694e-03 5.0950223135702327e-02 0.0000000000000000e+00  -2.8374893128742138e-03 5.2399267145651511e-02 0.0000000000000000e+00  -3.1878420532555655e-03 5.3927985784166042e-02 0.0000000000000000e+00  -3.5598269948804149e-03 5.5532460894454301e-02 0.0000000000000000e+00  -3.9520730316641578e-03 5.7224448557331054e-02 0.0000000000000000e+00  -4.3701190422699796e-03 5.9008457266739520e-02 0.0000000000000000e+00  -4.8146613734616466e-03 6.0886668393868186e-02 0.0000000000000000e+00  -5.2845940195455094e-03 6.2871164775709226e-02 0.0000000000000000e+00  -5.7824937523978459e-03 6.4962015393134911e-02 0.0000000000000000e+00  -6.3099339050191128e-03 6.7173379961334212e-02 0.0000000000000000e+00  -6.8714856211154743e-03 6.9512692305319021e-02 0.0000000000000000e+00  -7.4712365719339004e-03 7.1983404760324693e-02 0.0000000000000000e+00  -8.1033618487265993e-03 7.4600579033939823e-02 0.0000000000000000e+00  -8.7712723655349479e-03 7.7370152753345592e-02 0.0000000000000000e+00  -9.4854782447158382e-03 8.0298330389639683e-02 0.0000000000000000e+00  -1.0245576708196830e-02 8.3402082444341497e-02 0.0000000000000000e+00  -1.1052998159438920e-02 8.6682883226408838e-02 0.0000000000000000e+00  -1.1915116881352293e-02 9.0154342119268274e-02 0.0000000000000000e+00  -1.2817226135263038e-02 9.3815050388012841e-02 0.0000000000000000e+00  -1.3756814339017320e-02 9.7687384874978175e-02 0.0000000000000000e+00  -1.4739490729414665e-02 1.0174282681006595e-01 0.0000000000000000e+00  -1.5746562704758403e-02 1.0601706628432699e-01 0.0000000000000000e+00  -1.6728491831496068e-02 1.1045218008216813e-01 0.0000000000000000e+00  -1.7684618674937071e-02 1.1506251093836729e-01 0.0000000000000000e+00  -1.8545785156126832e-02 1.1980330186617205e-01 0.0000000000000000e+00  -1.9217453108844110e-02 1.2462319526104676e-01 0.0000000000000000e+00  -1.9552802333291951e-02 1.2943903651891997e-01 0.0000000000000000e+00  -1.9441437009688169e-02 1.3418172617161275e-01 0.0000000000000000e+00  -1.8666293755970523e-02 1.3868840087273607e-01 0.0000000000000000e+00  -1.6943558404298172e-02 1.4279773775758847e-01 0.0000000000000000e+00  -1.4013826571875651e-02 1.4629399842176713e-01 0.0000000000000000e+00  -9.4575100956323065e-03 1.4885428753801153e-01 0.0000000000000000e+00  -2.9211967406561359e-03 1.5020959787223756e-01 0.0000000000000000e+00  6.0595509216507691e-03 1.4985148142107801e-01 0.0000000000000000e+00  1.7696670746422002e-02 1.4741220424408219e-01 0.0000000000000000e+00  3.2144544723040666e-02 1.4222931034334577e-01 0.0000000000000000e+00  4.8995439239158931e-02 1.3398656505144818e-01 0.0000000000000000e+00  6.6547060311628201e-02 1.2224745679077839e-01 0.0000000000000000e+00  8.1729357158521115e-02 1.0717373652202945e-01 0.0000000000000000e+00  8.9055884787720863e-02 8.9386405035963026e-02 0.0000000000000000e+00  8.1506419808193994e-02 7.0270602187326517e-02 0.0000000000000000e+00  5.2454427959523556e-02 5.2907343502675779e-02 0.0000000000000000e+00  3.0865911275548370e-03 4.0948974577825752e-02 0.0000000000000000e+00  -5.3485120902468312e-02 4.2256930437276546e-02 0.0000000000000000e+00  -9.0224507223892927e-02 6.0340729841863255e-02 0.0000000000000000e+00  -9.3457785385012856e-02 8.8172687882212455e-02 0.0000000000000000e+00  -7.7100211727615928e-02 1.1500683234233872e-01 0.0000000000000000e+00  -5.7542362689577728e-02 1.3434111447150845e-01 0.0000000000000000e+00  -4.0792071663715158e-02 1.4699903372924786e-01 0.0000000000000000e+00  -2.7300538864726935e-02 1.5478095440451078e-01 0.0000000000000000e+00  -1.6411638815008400e-02 1.5911074715831064e-01 0.0000000000000000e+00  -7.6957535069722069e-03 1.6079360361566897e-01 0.0000000000000000e+00  -8.1395279223227127e-04 1.6051476865794631e-01 0.0000000000000000e+00  4.5268732002297753e-03 1.5874760280839428e-01 0.0000000000000000e+00  8.5844726530016000e-03 1.5589173124915628e-01 0.0000000000000000e+00  1.1552403214875129e-02 1.5222997985792469e-01 0.0000000000000000e+00  1.3646233474848602e-02 1.4798933686272092e-01 0.0000000000000000e+00  1.4998459859810648e-02 1.4338085994142855e-01 0.0000000000000000e+00  1.5780238583654346e-02 1.3853966489879382e-01 0.0000000000000000e+00  1.6105064291178379e-02 1.3358541724240355e-01 0.0000000000000000e+00  1.6088088091722599e-02 1.2861291682854467e-01 0.0000000000000000e+00  1.5813371494366412e-02 1.2369644886539835e-01 0.0000000000000000e+00  1.5364637610334766e-02 1.1886658829313654e-01 0.0000000000000000e+00  1.4780355225090134e-02 1.1418963320800125e-01 0.0000000000000000e+00  1.4126845111939167e-02 1.0966480488401081e-01 0.0000000000000000e+00  1.3424172652879228e-02 1.0532596511971047e-01 0.0000000000000000e+00  1.2705415819280532e-02 1.0117149390035438e-01 0.0000000000000000e+00  1.1971809296497184e-02 9.7230806100342418e-02 0.0000000000000000e+00  1.1258173510918115e-02 9.3464308443066857e-02 0.0000000000000000e+00  1.0551206117488150e-02 8.9893005839607049e-02 0.0000000000000000e+00  9.8668914447550514e-03 8.6510863060522275e-02 0.0000000000000000e+00  9.2211217005885287e-03 8.3300198760289101e-02 0.0000000000000000e+00  8.5902601464685029e-03 8.0264708958624628e-02 0.0000000000000000e+00  7.9868329531570716e-03 7.7386615574349768e-02 0.0000000000000000e+00  7.4120335566020580e-03 7.4664585226213373e-02 0.0000000000000000e+00  6.8639562019646109e-03 7.2085398706727088e-02 0.0000000000000000e+00  6.3396825514053651e-03 6.9642401023366871e-02 0.0000000000000000e+00  5.8407775520095953e-03 6.7329622870727565e-02 0.0000000000000000e+00  5.3721317898495760e-03 6.5132028055647120e-02 0.0000000000000000e+00  4.9184810400317840e-03 6.3054321668057689e-02 0.0000000000000000e+00  4.4874258736573649e-03 6.1077916021784182e-02 0.0000000000000000e+00  4.0799592995995624e-03 5.9203185802717787e-02 0.0000000000000000e+00  3.6939341269866389e-03 5.7420806510786321e-02 0.0000000000000000e+00  3.3279455543139161e-03 5.5727137316449911e-02 0.0000000000000000e+00  2.9772818727958369e-03 5.4117651144144949e-02 0.0000000000000000e+00  2.6447382686838970e-03 5.2584459272900376e-02 0.0000000000000000e+00  2.3320169419333309e-03 5.1123970283026537e-02 0.0000000000000000e+00  2.0374589979420760e-03 4.9733600309225495e-02 0.0000000000000000e+00  1.7587685200876751e-03 4.8407238070507889e-02 0.0000000000000000e+00  1.4960661201767335e-03 4.7143885724352984e-02 0.0000000000000000e+00  1.2470215317072727e-03 4.5938381054051181e-02 0.0000000000000000e+00  1.0133064167786600e-03 4.4785346742659118e-02 0.0000000000000000e+00  7.9292975503145538e-04 4.3685036747670269e-02 0.0000000000000000e+00  5.8631242398607386e-04 4.2633427799364007e-02 0.0000000000000000e+00  1.3649836268431572e-03 4.1040476462302966e-02 0.0000000000000000e+00  2.3007633964571132e-03 4.0397141369045715e-02 0.0000000000000000e+00  3.2012085455321686e-03 3.9700239885353719e-02 0.0000000000000000e+00  4.0645786782528464e-03 3.8954899992014742e-02 0.0000000000000000e+00  4.8859289179029892e-03 3.8161762896417192e-02 0.0000000000000000e+00  5.6651387670834360e-03 3.7327064197219061e-02 0.0000000000000000e+00  6.3972602765643019e-03 3.6450449222951216e-02 0.0000000000000000e+00  7.0844703090135897e-03 3.5539530120246327e-02 0.0000000000000000e+00  7.7195444209901855e-03 3.4599401854048271e-02 0.0000000000000000e+00  8.3060715233005539e-03 3.3629184644236705e-02 0.0000000000000000e+00  8.8407758341150760e-03 3.2638683782416245e-02 0.0000000000000000e+00  9.3240871521058349e-03 3.1630642183998817e-02 0.0000000000000000e+00  9.7534114450136353e-03 3.0607033216188163e-02 0.0000000000000000e+00  1.0130889861737945e-02 2.9573669463563441e-02 0.0000000000000000e+00  1.0455747468243940e-02 2.8533130878342298e-02 0.0000000000000000e+00  1.0729307043184982e-02 2.7492799583275284e-02 0.0000000000000000e+00  1.0950126085682485e-02 2.6452037368348433e-02 0.0000000000000000e+00  1.1122294729772908e-02 2.5417170013240818e-02 0.0000000000000000e+00  1.1244475026809258e-02 2.4390855052964323e-02 0.0000000000000000e+00  1.1319090505896164e-02 2.3377195014394215e-02 0.0000000000000000e+00  1.1347513539526443e-02 2.2377915047647200e-02 0.0000000000000000e+00  1.1330499653461454e-02 2.1396717705870809e-02 0.0000000000000000e+00  1.1270972374800315e-02 2.0437036033846591e-02 0.0000000000000000e+00  1.1169793019058358e-02 1.9498300451533113e-02 0.0000000000000000e+00  1.1028830903398528e-02 1.8585447499021766e-02 0.0000000000000000e+00  1.0850870445805535e-02 1.7699435191338528e-02 0.0000000000000000e+00  1.0636703125717432e-02 1.6843181077637208e-02 0.0000000000000000e+00  1.0389341093669815e-02 1.6015901101676895e-02 0.0000000000000000e+00  1.0108985906593950e-02 1.5220866241230374e-02 0.0000000000000000e+00  9.8001270251611809e-03 1.4459597519144760e-02 0.0000000000000000e+00  9.4621125013841893e-03 1.3730434655256859e-02 0.0000000000000000e+00  9.0994105880728132e-03 1.3036696874797429e-02 0.0000000000000000e+00  8.7117572079718347e-03 1.2378139515121213e-02 0.0000000000000000e+00  8.3017484602957263e-03 1.1756731850977972e-02 0.0000000000000000e+00  7.8708056019645804e-03 1.1171034681977053e-02 0.0000000000000000e+00  7.4208192254964726e-03 1.0622220364878017e-02 0.0000000000000000e+00  6.9540528648217312e-03 1.0112666838353082e-02 0.0000000000000000e+00  6.4695726730293951e-03 9.6394276733651370e-03 0.0000000000000000e+00  5.9730464783070217e-03 9.2042467962188748e-03 0.0000000000000000e+00  5.4613611594126719e-03 8.8077432789300716e-03 0.0000000000000000e+00  4.9403432204470077e-03 8.4489265959196789e-03 0.0000000000000000e+00  4.4079054120494208e-03 8.1300939291400615e-03 0.0000000000000000e+00  3.8668495348124186e-03 7.8475365922710746e-03 0.0000000000000000e+00  3.3180366195451039e-03 7.6033682486939501e-03 0.0000000000000000e+00  2.7622773684214145e-03 7.3985795107870764e-03 0.0000000000000000e+00  2.2013011192876853e-03 7.2301564108541065e-03 0.0000000000000000e+00  1.6364294553625318e-03 7.1003886025640551e-03 0.0000000000000000e+00  1.0677762858040303e-03 7.0078217354909191e-03 0.0000000000000000e+00  4.9948297035296030e-04 6.9549737066068578e-03 0.0000000000000000e+00  -7.2464097668346639e-05 6.9415696417319253e-03 0.0000000000000000e+00  -6.4344258045340391e-04 6.9636500555713167e-03 0.0000000000000000e+00  -1.2127675653265280e-03 7.0250491123141131e-03 0.0000000000000000e+00  -1.7795779263500252e-03 7.1247924632762104e-03 0.0000000000000000e+00  -2.3429771691488030e-03 7.2628379592825695e-03 0.0000000000000000e+00  -2.9017886215903137e-03 7.4383506840110698e-03 0.0000000000000000e+00  -3.4547351803366835e-03 7.6521074151638382e-03 0.0000000000000000e+00  -4.0014935509116896e-03 7.9030864937514479e-03 0.0000000000000000e+00  -4.5391290562822916e-03 8.1934382645390512e-03 0.0000000000000000e+00  -5.0683058043779292e-03 8.5227018639736814e-03 0.0000000000000000e+00  -5.5867632036878728e-03 8.8900186086612078e-03 0.0000000000000000e+00  -6.0928735428523910e-03 9.2935809346082268e-03 0.0000000000000000e+00  -6.5855026374305537e-03 9.7366829111479262e-03 0.0000000000000000e+00  -7.0641267463804449e-03 1.0216033336163194e-02 0.0000000000000000e+00  -7.5255201273879404e-03 1.0733882330637321e-02 0.0000000000000000e+00  -7.9694960172613065e-03 1.1290009896452768e-02 0.0000000000000000e+00  -8.3939574720465534e-03 1.1882398483750053e-02 0.0000000000000000e+00  -8.7962572362050226e-03 1.2510608633939074e-02 0.0000000000000000e+00  -9.1764858606014198e-03 1.3175011879998456e-02 0.0000000000000000e+00  -9.5314038509752563e-03 1.3874552086304543e-02 0.0000000000000000e+00  -9.8606702645760626e-03 1.4607929952872340e-02 0.0000000000000000e+00  -1.0160269262841219e-02 1.5375226281177297e-02 0.0000000000000000e+00  -1.0430631053618723e-02 1.6175513357418084e-02 0.0000000000000000e+00  -1.0667732682262905e-02 1.7006667925273802e-02 0.0000000000000000e+00  -1.0872206931869523e-02 1.7865551877215717e-02 0.0000000000000000e+00  -1.1038035821023945e-02 1.8754839031191201e-02 0.0000000000000000e+00  -1.1168774600523308e-02 1.9671904355513078e-02 0.0000000000000000e+00  -1.1258723705151755e