<?xml version="1.0"?>
<VTKFile type="UnstructuredGrid"  version="0.1"  >
<UnstructuredGrid>
<Piece  NumberOfPoints="16275" NumberOfCells="32468">
<Points>
<DataArray  type="Float64"  NumberOfComponents="3"  format="ascii">-0.5 0.5 0  0.5 0.5 0  0.5 -0.5 0  -0.5 -0.5 0  -1 1 0  1 1 0  1 -1 0  -1 -1 0  -0.4900000000000277 0.5 0  -0.4800000000000555 0.5 0  -0.4700000000000832 0.5 0  -0.4600000000001109 0.5 0  -0.4500000000001387 0.5 0  -0.4400000000001664 0.5 0  -0.4300000000001942 0.5 0  -0.4200000000002219 0.5 0  -0.4100000000002497 0.5 0  -0.4000000000002774 0.5 0  -0.3900000000003052 0.5 0  -0.3800000000003328 0.5 0  -0.3700000000003606 0.5 0  -0.3600000000003883 0.5 0  -0.3500000000004161 0.5 0  -0.3400000000004438 0.5 0  -0.3300000000004716 0.5 0  -0.3200000000004993 0.5 0  -0.3100000000005271 0.5 0  -0.3000000000005548 0.5 0  -0.2900000000005825 0.5 0  -0.2800000000006103 0.5 0  -0.2700000000006381 0.5 0  -0.2600000000006658 0.5 0  -0.2500000000006935 0.5 0  -0.2400000000007212 0.5 0  -0.230000000000749 0.5 0  -0.2200000000007767 0.5 0  -0.2100000000008044 0.5 0  -0.2000000000008322 0.5 0  -0.19000000000086 0.5 0  -0.1800000000008877 0.5 0  -0.1700000000009154 0.5 0  -0.1600000000009431 0.5 0  -0.1500000000009709 0.5 0  -0.1400000000009986 0.5 0  -0.1300000000010264 0.5 0  -0.1200000000010541 0.5 0  -0.1100000000010818 0.5 0  -0.1000000000011096 0.5 0  -0.09000000000113734 0.5 0  -0.08000000000116503 0.5 0  -0.07000000000119283 0.5 0  -0.06000000000122058 0.5 0  -0.05000000000124827 0.5 0  -0.04000000000127607 0.5 0  -0.03000000000130376 0.5 0  -0.02000000000133151 0.5 0  -0.01000000000135925 0.5 0  -1.376121439022882e-12 0.5 0  0.009999999998640763 0.5 0  0.01999999999866864 0.5 0  0.02999999999869629 0.5 0  0.03999999999872406 0.5 0  0.04999999999875182 0.5 0  0.05999999999877947 0.5 0  0.06999999999880724 0.5 0  0.079999999998835 0.5 0  0.08999999999886266 0.5 0  0.09999999999889042 0.5 0  0.1099999999989182 0.5 0  0.1199999999989459 0.5 0  0.1299999999989737 0.5 0  0.1399999999990014 0.5 0  0.1499999999990291 0.5 0  0.1599999999990568 0.5 0  0.1699999999990847 0.5 0  0.1799999999991124 0.5 0  0.1899999999991401 0.5 0  0.1999999999991678 0.5 0  0.2099999999991955 0.5 0  0.2199999999992234 0.5 0  0.2299999999992511 0.5 0  0.2399999999992788 0.5 0  0.2499999999993066 0.5 0  0.2599999999993342 0.5 0  0.269999999999362 0.5 0  0.2799999999993897 0.5 0  0.2899999999994175 0.5 0  0.2999999999994452 0.5 0  0.3099999999994729 0.5 0  0.3199999999995007 0.5 0  0.3299999999995284 0.5 0  0.3399999999995562 0.5 0  0.3499999999995839 0.5 0  0.3599999999996116 0.5 0  0.3699999999996393 0.5 0  0.379999999999667 0.5 0  0.3899999999996949 0.5 0  0.3999999999997226 0.5 0  0.4099999999997503 0.5 0  0.419999999999778 0.5 0  0.4299999999998058 0.5 0  0.4399999999998336 0.5 0  0.4499999999998613 0.5 0  0.4599999999998891 0.5 0  0.4699999999999167 0.5 0  0.4799999999999445 0.5 0  0.4899999999999722 0.5 0  0.5 0.4900000000000277 0  0.5 0.4800000000000555 0  0.5 0.4700000000000832 0  0.5 0.4600000000001109 0  0.5 0.4500000000001387 0  0.5 0.4400000000001664 0  0.5 0.4300000000001942 0  0.5 0.4200000000002219 0  0.5 0.4100000000002497 0  0.5 0.4000000000002774 0  0.5 0.3900000000003052 0  0.5 0.3800000000003328 0  0.5 0.3700000000003606 0  0.5 0.3600000000003883 0  0.5 0.3500000000004161 0  0.5 0.3400000000004438 0  0.5 0.3300000000004716 0  0.5 0.3200000000004993 0  0.5 0.3100000000005271 0  0.5 0.3000000000005548 0  0.5 0.2900000000005825 0  0.5 0.2800000000006103 0  0.5 0.2700000000006381 0  0.5 0.2600000000006658 0  0.5 0.2500000000006935 0  0.5 0.2400000000007212 0  0.5 0.230000000000749 0  0.5 0.2200000000007767 0  0.5 0.2100000000008044 0  0.5 0.2000000000008322 0  0.5 0.19000000000086 0  0.5 0.1800000000008877 0  0.5 0.1700000000009154 0  0.5 0.1600000000009431 0  0.5 0.1500000000009709 0  0.5 0.1400000000009986 0  0.5 0.1300000000010264 0  0.5 0.1200000000010541 0  0.5 0.1100000000010818 0  0.5 0.1000000000011096 0  0.5 0.09000000000113734 0  0.5 0.08000000000116503 0  0.5 0.07000000000119283 0  0.5 0.06000000000122058 0  0.5 0.05000000000124827 0  0.5 0.04000000000127607 0  0.5 0.03000000000130376 0  0.5 0.02000000000133151 0  0.5 0.01000000000135925 0  0.5 1.376121439022882e-12 0  0.5 -0.009999999998640763 0  0.5 -0.01999999999866864 0  0.5 -0.02999999999869629 0  0.5 -0.03999999999872406 0  0.5 -0.04999999999875182 0  0.5 -0.05999999999877947 0  0.5 -0.06999999999880724 0  0.5 -0.079999999998835 0  0.5 -0.08999999999886266 0  0.5 -0.09999999999889042 0  0.5 -0.1099999999989182 0  0.5 -0.1199999999989459 0  0.5 -0.1299999999989737 0  0.5 -0.1399999999990014 0  0.5 -0.1499999999990291 0  0.5 -0.1599999999990568 0  0.5 -0.1699999999990847 0  0.5 -0.1799999999991124 0  0.5 -0.1899999999991401 0  0.5 -0.1999999999991678 0  0.5 -0.2099999999991955 0  0.5 -0.2199999999992234 0  0.5 -0.2299999999992511 0  0.5 -0.2399999999992788 0  0.5 -0.2499999999993066 0  0.5 -0.2599999999993342 0  0.5 -0.269999999999362 0  0.5 -0.2799999999993897 0  0.5 -0.2899999999994175 0  0.5 -0.2999999999994452 0  0.5 -0.3099999999994729 0  0.5 -0.3199999999995007 0  0.5 -0.3299999999995284 0  0.5 -0.3399999999995562 0  0.5 -0.3499999999995839 0  0.5 -0.3599999999996116 0  0.5 -0.3699999999996393 0  0.5 -0.379999999999667 0  0.5 -0.3899999999996949 0  0.5 -0.3999999999997226 0  0.5 -0.4099999999997503 0  0.5 -0.419999999999778 0  0.5 -0.4299999999998058 0  0.5 -0.4399999999998336 0  0.5 -0.4499999999998613 0  0.5 -0.4599999999998891 0  0.5 -0.4699999999999167 0  0.5 -0.4799999999999445 0  0.5 -0.4899999999999722 0  0.4900000000000277 -0.5 0  0.4800000000000555 -0.5 0  0.4700000000000832 -0.5 0  0.4600000000001109 -0.5 0  0.4500000000001387 -0.5 0  0.4400000000001664 -0.5 0  0.4300000000001942 -0.5 0  0.4200000000002219 -0.5 0  0.4100000000002497 -0.5 0  0.4000000000002774 -0.5 0  0.3900000000003052 -0.5 0  0.3800000000003328 -0.5 0  0.3700000000003606 -0.5 0  0.3600000000003883 -0.5 0  0.3500000000004161 -0.5 0  0.3400000000004438 -0.5 0  0.3300000000004716 -0.5 0  0.3200000000004993 -0.5 0  0.3100000000005271 -0.5 0  0.3000000000005548 -0.5 0  0.2900000000005825 -0.5 0  0.2800000000006103 -0.5 0  0.2700000000006381 -0.5 0  0.2600000000006658 -0.5 0  0.2500000000006935 -0.5 0  0.2400000000007212 -0.5 0  0.230000000000749 -0.5 0  0.2200000000007767 -0.5 0  0.2100000000008044 -0.5 0  0.2000000000008322 -0.5 0  0.19000000000086 -0.5 0  0.1800000000008877 -0.5 0  0.1700000000009154 -0.5 0  0.1600000000009431 -0.5 0  0.1500000000009709 -0.5 0  0.1400000000009986 -0.5 0  0.1300000000010264 -0.5 0  0.1200000000010541 -0.5 0  0.1100000000010818 -0.5 0  0.1000000000011096 -0.5 0  0.09000000000113734 -0.5 0  0.08000000000116503 -0.5 0  0.07000000000119283 -0.5 0  0.06000000000122058 -0.5 0  0.05000000000124827 -0.5 0  0.04000000000127607 -0.5 0  0.03000000000130376 -0.5 0  0.02000000000133151 -0.5 0  0.01000000000135925 -0.5 0  1.376121439022882e-12 -0.5 0  -0.009999999998640763 -0.5 0  -0.01999999999866864 -0.5 0  -0.02999999999869629 -0.5 0  -0.03999999999872406 -0.5 0  -0.04999999999875182 -0.5 0  -0.05999999999877947 -0.5 0  -0.06999999999880724 -0.5 0  -0.079999999998835 -0.5 0  -0.08999999999886266 -0.5 0  -0.09999999999889042 -0.5 0  -0.1099999999989182 -0.5 0  -0.1199999999989459 -0.5 0  -0.1299999999989737 -0.5 0  -0.1399999999990014 -0.5 0  -0.1499999999990291 -0.5 0  -0.1599999999990568 -0.5 0  -0.1699999999990847 -0.5 0  -0.1799999999991124 -0.5 0  -0.1899999999991401 -0.5 0  -0.1999999999991678 -0.5 0  -0.2099999999991955 -0.5 0  -0.2199999999992234 -0.5 0  -0.2299999999992511 -0.5 0  -0.2399999999992788 -0.5 0  -0.2499999999993066 -0.5 0  -0.2599999999993342 -0.5 0  -0.269999999999362 -0.5 0  -0.2799999999993897 -0.5 0  -0.2899999999994175 -0.5 0  -0.2999999999994452 -0.5 0  -0.3099999999994729 -0.5 0  -0.3199999999995007 -0.5 0  -0.3299999999995284 -0.5 0  -0.3399999999995562 -0.5 0  -0.3499999999995839 -0.5 0  -0.3599999999996116 -0.5 0  -0.3699999999996393 -0.5 0  -0.379999999999667 -0.5 0  -0.3899999999996949 -0.5 0  -0.3999999999997226 -0.5 0  -0.4099999999997503 -0.5 0  -0.419999999999778 -0.5 0  -0.4299999999998058 -0.5 0  -0.4399999999998336 -0.5 0  -0.4499999999998613 -0.5 0  -0.4599999999998891 -0.5 0  -0.4699999999999167 -0.5 0  -0.4799999999999445 -0.5 0  -0.4899999999999722 -0.5 0  -0.5 -0.4900000000000277 0  -0.5 -0.4800000000000555 0  -0.5 -0.4700000000000832 0  -0.5 -0.4600000000001109 0  -0.5 -0.4500000000001387 0  -0.5 -0.4400000000001664 0  -0.5 -0.4300000000001942 0  -0.5 -0.4200000000002219 0  -0.5 -0.4100000000002497 0  -0.5 -0.4000000000002774 0  -0.5 -0.3900000000003052 0  -0.5 -0.3800000000003328 0  -0.5 -0.3700000000003606 0  -0.5 -0.3600000000003883 0  -0.5 -0.3500000000004161 0  -0.5 -0.3400000000004438 0  -0.5 -0.3300000000004716 0  -0.5 -0.3200000000004993 0  -0.5 -0.3100000000005271 0  -0.5 -0.3000000000005548 0  -0.5 -0.2900000000005825 0  -0.5 -0.2800000000006103 0  -0.5 -0.2700000000006381 0  -0.5 -0.2600000000006658 0  -0.5 -0.2500000000006935 0  -0.5 -0.2400000000007212 0  -0.5 -0.230000000000749 0  -0.5 -0.2200000000007767 0  -0.5 -0.2100000000008044 0  -0.5 -0.2000000000008322 0  -0.5 -0.19000000000086 0  -0.5 -0.1800000000008877 0  -0.5 -0.1700000000009154 0  -0.5 -0.1600000000009431 0  -0.5 -0.1500000000009709 0  -0.5 -0.1400000000009986 0  -0.5 -0.1300000000010264 0  -0.5 -0.1200000000010541 0  -0.5 -0.1100000000010818 0  -0.5 -0.1000000000011096 0  -0.5 -0.09000000000113734 0  -0.5 -0.08000000000116503 0  -0.5 -0.07000000000119283 0  -0.5 -0.06000000000122058 0  -0.5 -0.05000000000124827 0  -0.5 -0.04000000000127607 0  -0.5 -0.03000000000130376 0  -0.5 -0.02000000000133151 0  -0.5 -0.01000000000135925 0  -0.5 -1.376121439022882e-12 0  -0.5 0.009999999998640763 0  -0.5 0.01999999999866864 0  -0.5 0.02999999999869629 0  -0.5 0.03999999999872406 0  -0.5 0.04999999999875182 0  -0.5 0.05999999999877947 0  -0.5 0.06999999999880724 0  -0.5 0.079999999998835 0  -0.5 0.08999999999886266 0  -0.5 0.09999999999889042
[...]
<PointData  Vectors="f_27-0"> 
<DataArray  type="Float64"  Name="f_27-0"  NumberOfComponents="3" format="ascii">4.2985419297630039e-05 4.6369219200273558e-02 0.0000000000000000e+00  -2.8605727158096425e-04 4.6277765971231219e-02 0.0000000000000000e+00  -1.6199800173282630e-03 3.6474578465717812e-02 0.0000000000000000e+00  1.7094631017851756e-03 3.6439413449221768e-02 0.0000000000000000e+00  -7.5720356436199355e-03 1.4751188066710949e-02 0.0000000000000000e+00  7.5865074983526909e-03 1.4778141013708928e-02 0.0000000000000000e+00  -5.9120912639663908e-03 1.2985133211621074e-02 0.0000000000000000e+00  5.9008102319220261e-03 1.2978341444445464e-02 0.0000000000000000e+00  1.0577291477313372e-03 4.5741350954945914e-02 0.0000000000000000e+00  2.0419499614238341e-03 4.5048993693290705e-02 0.0000000000000000e+00  2.9922616393690355e-03 4.4295197721034157e-02 0.0000000000000000e+00  3.9054105643114225e-03 4.3483315280797304e-02 0.0000000000000000e+00  4.7784099416460406e-03 4.2617030850507054e-02 0.0000000000000000e+00  5.6085185252798368e-03 4.1700306110655574e-02 0.0000000000000000e+00  6.3932819935366382e-03 4.0737419497306283e-02 0.0000000000000000e+00  7.1304824824732259e-03 3.9732745115892698e-02 0.0000000000000000e+00  7.8182543757253746e-03 3.8690853395674484e-02 0.0000000000000000e+00  8.4550213918211225e-03 3.7616509890932653e-02 0.0000000000000000e+00  9.0395246709472216e-03 3.6514481139580474e-02 0.0000000000000000e+00  9.5707932822612952e-03 3.5389522392082623e-02 0.0000000000000000e+00  1.0048167457351287e-02 3.4246457103569466e-02 0.0000000000000000e+00  1.0471296400894460e-02 3.3090011584582753e-02 0.0000000000000000e+00  1.0840117094772249e-02 3.1924881166242716e-02 0.0000000000000000e+00  1.1154845013585026e-02 3.0755554445806889e-02 0.0000000000000000e+00  1.1415935109128746e-02 2.9586429710143209e-02 0.0000000000000000e+00  1.1624120033737221e-02 2.8421751543793651e-02 0.0000000000000000e+00  1.1780320959999294e-02 2.7265507387945732e-02 0.0000000000000000e+00  1.1885676888429817e-02 2.6121482055454438e-02 0.0000000000000000e+00  1.1941501673072553e-02 2.4993279433420067e-02 0.0000000000000000e+00  1.1949283098648173e-02 2.3884188168994579e-02 0.0000000000000000e+00  1.1910643768086574e-02 2.2797313671454145e-02 0.0000000000000000e+00  1.1827320111465403e-02 2.1735514118921769e-02 0.0000000000000000e+00  1.1701139722040890e-02 2.0701333015847308e-02 0.0000000000000000e+00  1.1533993061774057e-02 1.9697127478869602e-02 0.0000000000000000e+00  1.1327861792635526e-02 1.8724975377658954e-02 0.0000000000000000e+00  1.1084736382721573e-02 1.7786747072532926e-02 0.0000000000000000e+00  1.0806636760736919e-02 1.6884088202439890e-02 0.0000000000000000e+00  1.0495598891021475e-02 1.6018399062367367e-02 0.0000000000000000e+00  1.0153621440572660e-02 1.5190918619040324e-02 0.0000000000000000e+00  9.7827230794862753e-03 1.4402694643857057e-02 0.0000000000000000e+00  9.3848581427562125e-03 1.3654601964787613e-02 0.0000000000000000e+00  8.9619608968292633e-03 1.2947334239772046e-02 0.0000000000000000e+00  8.5159046956315744e-03 1.2281483940542881e-02 0.0000000000000000e+00  8.0485308960674597e-03 1.1657490262149607e-02 0.0000000000000000e+00  7.5616070055363957e-03 1.1075719859709229e-02 0.0000000000000000e+00  7.0568479132572560e-03 1.0536405059593926e-02 0.0000000000000000e+00  6.5359057883015237e-03 1.0039711155395590e-02 0.0000000000000000e+00  6.0003865200718215e-03 9.5857552546248122e-03 0.0000000000000000e+00  5.4518089662877094e-03 9.1745748748208126e-03 0.0000000000000000e+00  4.8916558975512043e-03 8.8061773171598818e-03 0.0000000000000000e+00  4.3213507759042010e-03 8.4805389274328572e-03 0.0000000000000000e+00  3.7422750506671183e-03 8.1976041504716584e-03 0.0000000000000000e+00  3.1557454264058084e-03 7.9573225639491645e-03 0.0000000000000000e+00  2.5630431500593860e-03 7.7596101792307120e-03 0.0000000000000000e+00  1.9654405938313775e-03 7.6044228986607253e-03 0.0000000000000000e+00  1.3641377885624012e-03 7.4916890588859475e-03 0.0000000000000000e+00  7.6034390317612495e-04 7.4213518886104236e-03 0.0000000000000000e+00  1.5524047051179805e-04 7.3933930025782101e-03 0.0000000000000000e+00  -4.5000011956117188e-04 7.4077841159222611e-03 0.0000000000000000e+00  -1.0541988280652714e-03 7.4645140927598105e-03 0.0000000000000000e+00  -1.6561888948506795e-03 7.5636055943661094e-03 0.0000000000000000e+00  -2.2547689083598729e-03 7.7050845205507814e-03 0.0000000000000000e+00  -2.8487498344485647e-03 7.8889912529680542e-03 0.0000000000000000e+00  -3.4368843053374006e-03 8.1153623282338803e-03 0.0000000000000000e+00  -4.0179114703283465e-03 8.3842618479260580e-03 0.0000000000000000e+00  -4.5905318735363614e-03 8.6957385787125151e-03 0.0000000000000000e+00  -5.1534030856272648e-03 9.0498338386725379e-03 0.0000000000000000e+00  -5.7051350944830942e-03 9.4465625590584613e-03 0.0000000000000000e+00  -6.2442795015941110e-03 9.8859384670233405e-03 0.0000000000000000e+00  -6.7693552991159043e-03 1.0367906104358029e-02 0.0000000000000000e+00  -7.2787834914214830e-03 1.0892385530089223e-02 0.0000000000000000e+00  -7.7709696295545543e-03 1.1459233875473334e-02 0.0000000000000000e+00  -8.2442293462025550e-03 1.2068236361276108e-02 0.0000000000000000e+00  -8.6968349891908426e-03 1.2719086828368673e-02 0.0000000000000000e+00  -9.1270121798260623e-03 1.3411374295841884e-02 0.0000000000000000e+00  -9.5328857954689560e-03 1.4144584584231573e-02 0.0000000000000000e+00  -9.9126027480011744e-03 1.4918079439756158e-02 0.0000000000000000e+00  -1.0264189817643632e-02 1.5731052574185451e-02 0.0000000000000000e+00  -1.0585716244871554e-02 1.6582565091781486e-02 0.0000000000000000e+00  -1.0875161669845807e-02 1.7471485187102259e-02 0.0000000000000000e+00  -1.1130517444212524e-02 1.8396471105904966e-02 0.0000000000000000e+00  -1.1349788529157093e-02 1.9356035852429399e-02 0.0000000000000000e+00  -1.1530958852729926e-02 2.0348432862171559e-02 0.0000000000000000e+00  -1.1672068006695282e-02 2.1371695695469879e-02 0.0000000000000000e+00  -1.1771194554809652e-02 2.2423629004912470e-02 0.0000000000000000e+00  -1.1826459790121436e-02 2.3501761168573863e-02 0.0000000000000000e+00  -1.1836090016724435e-02 2.4603454359066454e-02 0.0000000000000000e+00  -1.1798412485674863e-02 2.5725732091348135e-02 0.0000000000000000e+00  -1.1711884344934831e-02 2.6865421293835651e-02 0.0000000000000000e+00  -1.1575068896568749e-02 2.8019087693471983e-02 0.0000000000000000e+00  -1.1386769602192466e-02 2.9183045546446160e-02 0.0000000000000000e+00  -1.1145918637612384e-02 3.0353439295276310e-02 0.0000000000000000e+00  -1.0851679549227703e-02 3.1526095263103508e-02 0.0000000000000000e+00  -1.0503437950928479e-02 3.2696785094094280e-02 0.0000000000000000e+00  -1.0100865444391153e-02 3.3861013551962395e-02 0.0000000000000000e+00  -9.6438448514235380e-03 3.5014201873169254e-02 0.0000000000000000e+00  -9.1325884972563824e-03 3.6151580859589597e-02 0.0000000000000000e+00  -8.5675639052806892e-03 3.7268385684587145e-02 0.0000000000000000e+00  -7.9495782541943762e-03 3.8359789480923084e-02 0.0000000000000000e+00  -7.2797104769413501e-03 3.9420998359579025e-02 0.0000000000000000e+00  -6.5593985325477170e-03 4.0447194447881064e-02 0.0000000000000000e+00  -5.7903353700190846e-03 4.1433672468991344e-02 0.0000000000000000e+00  -4.9745818021623431e-03 4.2375893348594609e-02 0.0000000000000000e+00  -4.1144343847864633e-03 4.3269417937310081e-02 0.0000000000000000e+00  -3.2125034089828973e-03 4.4110141430992733e-02 0.0000000000000000e+00  -2.2716761982267165e-03 4.4894124782076522e-02 0.0000000000000000e+00  -1.2950881436547630e-03 4.5617752304969908e-02 0.0000000000000000e+00  -4.1646197613508896e-04 4.7319972852276536e-02 0.0000000000000000e+00  -5.4701525581074323e-04 4.8398789811879200e-02 0.0000000000000000e+00  -6.7650160617615163e-04 4.9514605649199302e-02 0.0000000000000000e+00  -8.0360761353176578e-04 5.0667642379067790e-02 0.0000000000000000e+00  -9.2691979197980499e-04 5.1858046364134547e-02 0.0000000000000000e+00  -1.0449311508178431e-03 5.3085674980288489e-02 0.0000000000000000e+00  -1.1561221834271796e-03 5.4350190194112739e-02 0.0000000000000000e+00  -1.2588495874675417e-03 5.5651223286892065e-02 0.0000000000000000e+00  -1.3516006499969184e-03 5.6987836721616440e-02 0.0000000000000000e+00  -1.4327954383986233e-03 5.8358984553426432e-02 0.0000000000000000e+00  -1.5010016154744525e-03 5.9763346074931868e-02 0.0000000000000000e+00  -1.5549531840550537e-03 6.1199171688232176e-02 0.0000000000000000e+00  -1.5935518552983180e-03 6.2664495745510460e-02 0.0000000000000000e+00  -1.6159991663837314e-03 6.4156816093268815e-02 0.0000000000000000e+00  -1.6218229300534800e-03 6.5673391317239344e-02 0.0000000000000000e+00  -1.6109059653422876e-03 6.7211039572802667e-02 0.0000000000000000e+00  -1.5835749015828296e-03 6.8766208586975935e-02 0.0000000000000000e+00  -1.5406678727572019e-03 7.0334945875919555e-02 0.0000000000000000e+00  -1.4834820355831525e-03 7.1912832272023011e-02 0.0000000000000000e+00  -1.4138203632475914e-03 7.3495128529654050e-02 0.0000000000000000e+00  -1.3340404881672296e-03 7.5076859099286339e-02 0.0000000000000000e+00  -1.2469346551511312e-03 7.6652504321178053e-02 0.0000000000000000e+00  -1.1557361434748916e-03 7.8216390124797461e-02 0.0000000000000000e+00  -1.0639933047873718e-03 7.9762456905591403e-02 0.0000000000000000e+00  -9.7549980476331947e-04 8.1284644888739502e-02 0.0000000000000000e+00  -8.9414137226561860e-04 8.2776544934259177e-02 0.0000000000000000e+00  -8.2377693306922531e-04 8.4231720593551732e-02 0.0000000000000000e+00  -7.6809586677078730e-04 8.5643620709379420e-02 0.0000000000000000e+00  -7.3036210922622087e-04 8.7005932675471506e-02 0.0000000000000000e+00  -7.1349224101672755e-04 8.8312172131590608e-02 0.0000000000000000e+00  -7.1960715635820322e-04 8.9556143755505996e-02 0.0000000000000000e+00  -7.5014667119240616e-04 9.0731857034865818e-02 0.0000000000000000e+00  -8.0569106141972356e-04 9.1833610119168171e-02 0.0000000000000000e+00  -8.8595843069986938e-04 9.2855985499949209e-02 0.0000000000000000e+00  -9.8966978237516280e-04 9.3794075624583154e-02 0.0000000000000000e+00  -1.1147605789269654e-03 9.4643239735636500e-02 0.0000000000000000e+00  -1.2581501934967544e-03 9.5399428187829718e-02 0.0000000000000000e+00  -1.4162108605665557e-03 9.6059094297767378e-02 0.0000000000000000e+00  -1.5846343369494956e-03 9.6619196605460325e-02 0.0000000000000000e+00  -1.7586188560365160e-03 9.7077204894360822e-02 0.0000000000000000e+00  -1.9332243404585599e-03 9.7431261710037353e-02 0.0000000000000000e+00  -2.1034121561464931e-03 9.7680048835582095e-02 0.0000000000000000e+00  -2.2640971194393556e-03 9.7822716066434237e-02 0.0000000000000000e+00  -2.4106684261142948e-03 9.7859110275640995e-02 0.0000000000000000e+00  -2.5388914990820879e-03 9.7789622390673459e-02 0.0000000000000000e+00  -2.6451107779292050e-03 9.7615156689515481e-02 0.0000000000000000e+00  -2.7263267549772589e-03 9.7337124317672427e-02 0.0000000000000000e+00  -2.7803622944977202e-03 9.6957507897527176e-02 0.0000000000000000e+00  -2.8058588283477368e-03 9.6478773753772368e-02 0.0000000000000000e+00  -2.8021162587341030e-03 9.5903811842957598e-02 0.0000000000000000e+00  -2.7693459174321488e-03 9.5235901975358958e-02 0.0000000000000000e+00  -2.7085948079667694e-03 9.4478833023211875e-02 0.0000000000000000e+00  -2.6214410343699587e-03 9.3636705254815822e-02 0.0000000000000000e+00  -2.5100019525273543e-03 9.2713906732621976e-02 0.0000000000000000e+00  -2.3769474939220282e-03 9.1715088761463559e-02 0.0000000000000000e+00  -2.2254041918314716e-03 9.0645211240348619e-02 0.0000000000000000e+00  -2.0587271782161942e-03 8.9509464285035298e-02 0.0000000000000000e+00  -1.8804927642061180e-03 8.8313079714699247e-02 0.0000000000000000e+00  -1.6942327977258786e-03 8.7061538733865670e-02 0.0000000000000000e+00  -1.5035341732131367e-03 8.5760283400291806e-02 0.0000000000000000e+00  -1.3117387482734113e-03 8.4414805113099220e-02 0.0000000000000000e+00  -1.1222135439152136e-03 8.3030583812685535e-02 0.0000000000000000e+00  -9.3791472144205440e-04 8.1613086044388383e-02 0.0000000000000000e+00  -7.6153814548598564e-04 8.0167592111997463e-02 0.0000000000000000e+00  -5.9553158715229960e-04 7.8699414728793507e-02 0.0000000000000000e+00  -4.4186227469565729e-04 7.7213530155778351e-02 0.0000000000000000e+00  -3.0217686346792550e-04 7.5714787565304517e-02 0.0000000000000000e+00  -1.7777312858905029e-04 7.4207893791414306e-02 0.0000000000000000e+00  -6.9630446179099319e-05 7.2697226913453539e-02 0.0000000000000000e+00  2.1651010515705057e-05 7.1187009899259732e-02 0.0000000000000000e+00  9.5813409126576082e-05 6.9681046621032638e-02 0.0000000000000000e+00  1.5276742088688700e-04 6.8183111210547223e-02 0.0000000000000000e+00  1.9282006295792074e-04 6.6696412893713100e-02 0.0000000000000000e+00  2.1653498993923608e-04 6.5224127984519917e-02 0.0000000000000000e+00  2.2455991831062282e-04 6.3768971114658304e-02 0.0000000000000000e+00  2.1770142514472619e-04 6.2333521912480282e-02 0.0000000000000000e+00  1.9707423667792161e-04 6.0919922049651354e-02 0.0000000000000000e+00  1.6358123650987599e-04 5.9530251247261329e-02 0.0000000000000000e+00  1.1849606372572488e-04 5.8166178272122455e-02 0.0000000000000000e+00  6.3030995155098651e-05 5.6829132907157333e-02 0.0000000000000000e+00  -1.6200015906341587e-06 5.5520412677738079e-02 0.0000000000000000e+00  -7.4229810062785077e-05 5.4241034920444492e-02 0.0000000000000000e+00  -1.5356532794298579e-04 5.2991788461730041e-02 0.0000000000000000e+00  -2.3843241830317458e-04 5.1773352858169835e-02 0.0000000000000000e+00  -3.2774326303223436e-04 5.0586149584133655e-02 0.0000000000000000e+00  -4.2036689970902232e-04 4.9430531803156319e-02 0.0000000000000000e+00  -5.1525919233682399e-04 4.8306600809176516e-02 0.0000000000000000e+00  -6.1151229627838554e-04 4.7214445171708114e-02 0.0000000000000000e+00  -7.0822727767570163e-04 4.6153930913619405e-02 0.0000000000000000e+00  -8.0459942529836903e-04 4.5124905513762352e-02 0.0000000000000000e+00  -8.9986039119429153e-04 4.4127081954181385e-02 0.0000000000000000e+00  -9.9334960537369771e-04 4.3160093150011659e-02 0.0000000000000000e+00  -1.0844819388992112e-03 4.2223545165005059e-02 0.0000000000000000e+00  -1.1727494552007910e-03 4.1316948371217896e-02 0.0000000000000000e+00  -1.2576293187296084e-03 4.0439760500728922e-02 0.0000000000000000e+00  -1.3387902794980758e-03 3.9591446049709024e-02 0.0000000000000000e+00  -1.4158697260724246e-03 3.8771400374660731e-02 0.0000000000000000e+00  -1.4885598319269468e-03 3.7978991144171484e-02 0.0000000000000000e+00  -1.5566652054670963e-03 3.7213592719810597e-02 0.0000000000000000e+00  -9.0296848939568769e-04 3.6069505987620813e-02 0.0000000000000000e+00  -2.0537492078137143e-04 3.5624108621849622e-02 0.0000000000000000e+00  4.7097748044950389e-04 3.5139899354317675e-02 0.0000000000000000e+00  1.1242368149861361e-03 3.4618569318231929e-02 0.0000000000000000e+00  1.7527265219119334e-03 3.4061961577764081e-02 0.0000000000000000e+00  2.3548080365865466e-03 3.3472110195232545e-02 0.0000000000000000e+00  2.9290063032622648e-03 3.2851139753229300e-02 0.0000000000000000e+00  3.4739149979167430e-03 3.2201366181915478e-02 0.0000000000000000e+00  3.9882863688210065e-03 3.1525152043390445e-02 0.0000000000000000e+00  4.4710248992145445e-03 3.0824992797598857e-02 0.0000000000000000e+00  4.9211386971427257e-03 3.0103471704992703e-02 0.0000000000000000e+00  5.3377897118910235e-03 2.9363205061973045e-02 0.0000000000000000e+00  5.7202959230662201e-03 2.8606873021650579e-02 0.0000000000000000e+00  6.0681027006016502e-03 2.7837187079617052e-02 0.0000000000000000e+00  6.3808459182177844e-03 2.7056844190284986e-02 0.0000000000000000e+00  6.6582620215677214e-03 2.6268562991030406e-02 0.0000000000000000e+00  6.9002532829173053e-03 2.5475041123390441e-02 0.0000000000000000e+00  7.1068699193223292e-03 2.4678935437231243e-02 0.0000000000000000e+00  7.2782749427425294e-03 2.3882831223737095e-02 0.0000000000000000e+00  7.4147707404790993e-03 2.3089289569650645e-02 0.0000000000000000e+00  7.5167872475779317e-03 2.2300797547411683e-02 0.0000000000000000e+00  7.5848643705184460e-03 2.1519729078705908e-02 0.0000000000000000e+00  7.6196552840473520e-03 2.0748403848062130e-02 0.0000000000000000e+00  7.6219121957948818e-03 1.9989008474818597e-02 0.0000000000000000e+00  7.5924759232466514e-03 1.9243652775797242e-02 0.0000000000000000e+00  7.5322540709679359e-03 1.8514331903937396e-02 0.0000000000000000e+00  7.4422610891265355e-03 1.7802919547211509e-02 0.0000000000000000e+00  7.3235462502354446e-03 1.7111164892595069e-02 0.0000000000000000e+00  7.1772336067178139e-03 1.6440762707286425e-02 0.0000000000000000e+00  7.0044846503554943e-03 1.5793212796042014e-02 0.0000000000000000e+00  6.8065004234909889e-03 1.5169936829750047e-02 0.0000000000000000e+00  6.5845321667028708e-03 1.4572259345381422e-02 0.0000000000000000e+00  6.3398301684935172e-03 1.4001375860780660e-02 0.0000000000000000e+00  6.0736816482256520e-03 1.3458375925554286e-02 0.0000000000000000e+00  5.7873854783714752e-03 1.2944269052428313e-02 0.0000000000000000e+00  5.4822503607372813e-03 1.2459944029274457e-02 0.0000000000000000e+00  5.1595773150512874e-03 1.2006215032233937e-02 0.0000000000000000e+00  4.8206824723150288e-03 1.1583797914197965e-02 0.0000000000000000e+00  4.4668720366458550e-03 1.1193341070385344e-02 0.0000000000000000e+00  4.0994485163081268e-03 1.0835395144781716e-02 0.0000000000000000e+00  3.7197015183029801e-03 1.0510472623037446e-02 0.0000000000000000e+00  3.3289107330829442e-03 1.0219013309716227e-02 0.0000000000000000e+00  2.9283571229152977e-03 9.9613487691099130e-03 0.0000000000000000e+00  2.5193156302441930e-03 9.7378147735615213e-03 0.0000000000000000e+00  2.1030279437299010e-03 9.5486772626454577e-03 0.0000000000000000e+00  1.6807477084347816e-03 9.3941394417387733e-03 0.0000000000000000e+00  1.2537110501649597e-03 9.2743721469936754e-03 0.0000000000000000e+00  8.2315689879541116e-04 9.1895219949373694e-03 0.0000000000000000e+00  3.9029441998435449e-04 9.1396627769585754e-03 0.0000000000000000e+00  -4.3636640046308177e-05 9.1248395725449516e-03 0.0000000000000000e+00  -4.7742162576095315e-04 9.1450686118109154e-03 0.0000000000000000e+00  -9.0983826670667394e-04 9.2003346374026664e-03 0.0000000000000000e+00  -1.3396676811598318e-03 9.2905732648794169e-03 0.0000000000000000e+00  -1.7656776240906813e-03 9.4156717365083010e-03 0.0000000000000000e+00  -2.1866454429113561e-03 9.5754842378005106e-03 0.0000000000000000e+00  -2.6013260440208934e-03 9.7698265934064773e-03 0.0000000000000000e+00  -3.0084710974794030e-03 9.9984789508408469e-03 0.0000000000000000e+00  -3.4068283279093193e-03 1.0261167918364136e-02 0.0000000000000000e+00  -3.7951315167401886e-03 1.0557559277732571e-02 0.0000000000000000e+00  -4.1721098284842311e-03 1.0887267165218421e-02 0.0000000000000000e+00  -4.5364789868676900e-03 1.1249832563006008e-02 0.0000000000000000e+00  -4.8869484433431924e-03 1.1644751751803625e-02 0.0000000000000000e+00  -5.2222199266090943e-03 1.2071440877186080e-02 0.0000000000000000e+00  -5.5409920447585985e-03 1.2529231191433626e-02 0.0000000000000000e+00  -5.8419571006868062e-03 1.3017398501342196e-02 0.0000000000000000e+00  -6.1238259171398348e-03 1.3535106318232629e-02 0.0000000000000000e+00  -6.3852921838729601e-03 1.4081407707727272e-02 0.0000000000000000e+00  -6.6250733898303533e-03 1.4655301859543444e-02 0.0000000000000000e+00  -6.8418963835749471e-03 1.5255679140229428e-02 0.0000000000000000e+00  -7.0345147790384765e-03 1.5881303194904425e-02 0.0000000000000000e+00  -7.2017076208528291e-03 1.6530834087924030e-02 0.0000000000000000e+00  -7.3422867177785241e-03 1.7202874319563227e-02 0.0000000000000000e+00  -7.4551070617696795e-03 1.7895816748809541e-02 0.0000000000000000e+00  -7.5390784677709108e-03 1.8608008914531054e-02 0.0000000000000000e+00  -7.5931659235041549e-03 1.9337669941402406e-02 0.0000000000000000e+00  -7.6163979523006450e-03 2.0082900875402949e-02 0.