<?xml version="1.0"?>
<VTKFile type="UnstructuredGrid"  version="0.1"  >
<UnstructuredGrid>
<Piece  NumberOfPoints="16275" NumberOfCells="32468">
<Points>
<DataArray  type="Float64"  NumberOfComponents="3"  format="ascii">-0.5 0.5 0  0.5 0.5 0  0.5 -0.5 0  -0.5 -0.5 0  -1 1 0  1 1 0  1 -1 0  -1 -1 0  -0.4900000000000277 0.5 0  -0.4800000000000555 0.5 0  -0.4700000000000832 0.5 0  -0.4600000000001109 0.5 0  -0.4500000000001387 0.5 0  -0.4400000000001664 0.5 0  -0.4300000000001942 0.5 0  -0.4200000000002219 0.5 0  -0.4100000000002497 0.5 0  -0.4000000000002774 0.5 0  -0.3900000000003052 0.5 0  -0.3800000000003328 0.5 0  -0.3700000000003606 0.5 0  -0.3600000000003883 0.5 0  -0.3500000000004161 0.5 0  -0.3400000000004438 0.5 0  -0.3300000000004716 0.5 0  -0.3200000000004993 0.5 0  -0.3100000000005271 0.5 0  -0.3000000000005548 0.5 0  -0.2900000000005825 0.5 0  -0.2800000000006103 0.5 0  -0.2700000000006381 0.5 0  -0.2600000000006658 0.5 0  -0.2500000000006935 0.5 0  -0.2400000000007212 0.5 0  -0.230000000000749 0.5 0  -0.2200000000007767 0.5 0  -0.2100000000008044 0.5 0  -0.2000000000008322 0.5 0  -0.19000000000086 0.5 0  -0.1800000000008877 0.5 0  -0.1700000000009154 0.5 0  -0.1600000000009431 0.5 0  -0.1500000000009709 0.5 0  -0.1400000000009986 0.5 0  -0.1300000000010264 0.5 0  -0.1200000000010541 0.5 0  -0.1100000000010818 0.5 0  -0.1000000000011096 0.5 0  -0.09000000000113734 0.5 0  -0.08000000000116503 0.5 0  -0.07000000000119283 0.5 0  -0.06000000000122058 0.5 0  -0.05000000000124827 0.5 0  -0.04000000000127607 0.5 0  -0.03000000000130376 0.5 0  -0.02000000000133151 0.5 0  -0.01000000000135925 0.5 0  -1.376121439022882e-12 0.5 0  0.009999999998640763 0.5 0  0.01999999999866864 0.5 0  0.02999999999869629 0.5 0  0.03999999999872406 0.5 0  0.04999999999875182 0.5 0  0.05999999999877947 0.5 0  0.06999999999880724 0.5 0  0.079999999998835 0.5 0  0.08999999999886266 0.5 0  0.09999999999889042 0.5 0  0.1099999999989182 0.5 0  0.1199999999989459 0.5 0  0.1299999999989737 0.5 0  0.1399999999990014 0.5 0  0.1499999999990291 0.5 0  0.1599999999990568 0.5 0  0.1699999999990847 0.5 0  0.1799999999991124 0.5 0  0.1899999999991401 0.5 0  0.1999999999991678 0.5 0  0.2099999999991955 0.5 0  0.2199999999992234 0.5 0  0.2299999999992511 0.5 0  0.2399999999992788 0.5 0  0.2499999999993066 0.5 0  0.2599999999993342 0.5 0  0.269999999999362 0.5 0  0.2799999999993897 0.5 0  0.2899999999994175 0.5 0  0.2999999999994452 0.5 0  0.3099999999994729 0.5 0  0.3199999999995007 0.5 0  0.3299999999995284 0.5 0  0.3399999999995562 0.5 0  0.3499999999995839 0.5 0  0.3599999999996116 0.5 0  0.3699999999996393 0.5 0  0.379999999999667 0.5 0  0.3899999999996949 0.5 0  0.3999999999997226 0.5 0  0.4099999999997503 0.5 0  0.419999999999778 0.5 0  0.4299999999998058 0.5 0  0.4399999999998336 0.5 0  0.4499999999998613 0.5 0  0.4599999999998891 0.5 0  0.4699999999999167 0.5 0  0.4799999999999445 0.5 0  0.4899999999999722 0.5 0  0.5 0.4900000000000277 0  0.5 0.4800000000000555 0  0.5 0.4700000000000832 0  0.5 0.4600000000001109 0  0.5 0.4500000000001387 0  0.5 0.4400000000001664 0  0.5 0.4300000000001942 0  0.5 0.4200000000002219 0  0.5 0.4100000000002497 0  0.5 0.4000000000002774 0  0.5 0.3900000000003052 0  0.5 0.3800000000003328 0  0.5 0.3700000000003606 0  0.5 0.3600000000003883 0  0.5 0.3500000000004161 0  0.5 0.3400000000004438 0  0.5 0.3300000000004716 0  0.5 0.3200000000004993 0  0.5 0.3100000000005271 0  0.5 0.3000000000005548 0  0.5 0.2900000000005825 0  0.5 0.2800000000006103 0  0.5 0.2700000000006381 0  0.5 0.2600000000006658 0  0.5 0.2500000000006935 0  0.5 0.2400000000007212 0  0.5 0.230000000000749 0  0.5 0.2200000000007767 0  0.5 0.2100000000008044 0  0.5 0.2000000000008322 0  0.5 0.19000000000086 0  0.5 0.1800000000008877 0  0.5 0.1700000000009154 0  0.5 0.1600000000009431 0  0.5 0.1500000000009709 0  0.5 0.1400000000009986 0  0.5 0.1300000000010264 0  0.5 0.1200000000010541 0  0.5 0.1100000000010818 0  0.5 0.1000000000011096 0  0.5 0.09000000000113734 0  0.5 0.08000000000116503 0  0.5 0.07000000000119283 0  0.5 0.06000000000122058 0  0.5 0.05000000000124827 0  0.5 0.04000000000127607 0  0.5 0.03000000000130376 0  0.5 0.02000000000133151 0  0.5 0.01000000000135925 0  0.5 1.376121439022882e-12 0  0.5 -0.009999999998640763 0  0.5 -0.01999999999866864 0  0.5 -0.02999999999869629 0  0.5 -0.03999999999872406 0  0.5 -0.04999999999875182 0  0.5 -0.05999999999877947 0  0.5 -0.06999999999880724 0  0.5 -0.079999999998835 0  0.5 -0.08999999999886266 0  0.5 -0.09999999999889042 0  0.5 -0.1099999999989182 0  0.5 -0.1199999999989459 0  0.5 -0.1299999999989737 0  0.5 -0.1399999999990014 0  0.5 -0.1499999999990291 0  0.5 -0.1599999999990568 0  0.5 -0.1699999999990847 0  0.5 -0.1799999999991124 0  0.5 -0.1899999999991401 0  0.5 -0.1999999999991678 0  0.5 -0.2099999999991955 0  0.5 -0.2199999999992234 0  0.5 -0.2299999999992511 0  0.5 -0.2399999999992788 0  0.5 -0.2499999999993066 0  0.5 -0.2599999999993342 0  0.5 -0.269999999999362 0  0.5 -0.2799999999993897 0  0.5 -0.2899999999994175 0  0.5 -0.2999999999994452 0  0.5 -0.3099999999994729 0  0.5 -0.3199999999995007 0  0.5 -0.3299999999995284 0  0.5 -0.3399999999995562 0  0.5 -0.3499999999995839 0  0.5 -0.3599999999996116 0  0.5 -0.3699999999996393 0  0.5 -0.379999999999667 0  0.5 -0.3899999999996949 0  0.5 -0.3999999999997226 0  0.5 -0.4099999999997503 0  0.5 -0.419999999999778 0  0.5 -0.4299999999998058 0  0.5 -0.4399999999998336 0  0.5 -0.4499999999998613 0  0.5 -0.4599999999998891 0  0.5 -0.4699999999999167 0  0.5 -0.4799999999999445 0  0.5 -0.4899999999999722 0  0.4900000000000277 -0.5 0  0.4800000000000555 -0.5 0  0.4700000000000832 -0.5 0  0.4600000000001109 -0.5 0  0.4500000000001387 -0.5 0  0.4400000000001664 -0.5 0  0.4300000000001942 -0.5 0  0.4200000000002219 -0.5 0  0.4100000000002497 -0.5 0  0.4000000000002774 -0.5 0  0.3900000000003052 -0.5 0  0.3800000000003328 -0.5 0  0.3700000000003606 -0.5 0  0.3600000000003883 -0.5 0  0.3500000000004161 -0.5 0  0.3400000000004438 -0.5 0  0.3300000000004716 -0.5 0  0.3200000000004993 -0.5 0  0.3100000000005271 -0.5 0  0.3000000000005548 -0.5 0  0.2900000000005825 -0.5 0  0.2800000000006103 -0.5 0  0.2700000000006381 -0.5 0  0.2600000000006658 -0.5 0  0.2500000000006935 -0.5 0  0.2400000000007212 -0.5 0  0.230000000000749 -0.5 0  0.2200000000007767 -0.5 0  0.2100000000008044 -0.5 0  0.2000000000008322 -0.5 0  0.19000000000086 -0.5 0  0.1800000000008877 -0.5 0  0.1700000000009154 -0.5 0  0.1600000000009431 -0.5 0  0.1500000000009709 -0.5 0  0.1400000000009986 -0.5 0  0.1300000000010264 -0.5 0  0.1200000000010541 -0.5 0  0.1100000000010818 -0.5 0  0.1000000000011096 -0.5 0  0.09000000000113734 -0.5 0  0.08000000000116503 -0.5 0  0.07000000000119283 -0.5 0  0.06000000000122058 -0.5 0  0.05000000000124827 -0.5 0  0.04000000000127607 -0.5 0  0.03000000000130376 -0.5 0  0.02000000000133151 -0.5 0  0.01000000000135925 -0.5 0  1.376121439022882e-12 -0.5 0  -0.009999999998640763 -0.5 0  -0.01999999999866864 -0.5 0  -0.02999999999869629 -0.5 0  -0.03999999999872406 -0.5 0  -0.04999999999875182 -0.5 0  -0.05999999999877947 -0.5 0  -0.06999999999880724 -0.5 0  -0.079999999998835 -0.5 0  -0.08999999999886266 -0.5 0  -0.09999999999889042 -0.5 0  -0.1099999999989182 -0.5 0  -0.1199999999989459 -0.5 0  -0.1299999999989737 -0.5 0  -0.1399999999990014 -0.5 0  -0.1499999999990291 -0.5 0  -0.1599999999990568 -0.5 0  -0.1699999999990847 -0.5 0  -0.1799999999991124 -0.5 0  -0.1899999999991401 -0.5 0  -0.1999999999991678 -0.5 0  -0.2099999999991955 -0.5 0  -0.2199999999992234 -0.5 0  -0.2299999999992511 -0.5 0  -0.2399999999992788 -0.5 0  -0.2499999999993066 -0.5 0  -0.2599999999993342 -0.5 0  -0.269999999999362 -0.5 0  -0.2799999999993897 -0.5 0  -0.2899999999994175 -0.5 0  -0.2999999999994452 -0.5 0  -0.3099999999994729 -0.5 0  -0.3199999999995007 -0.5 0  -0.3299999999995284 -0.5 0  -0.3399999999995562 -0.5 0  -0.3499999999995839 -0.5 0  -0.3599999999996116 -0.5 0  -0.3699999999996393 -0.5 0  -0.379999999999667 -0.5 0  -0.3899999999996949 -0.5 0  -0.3999999999997226 -0.5 0  -0.4099999999997503 -0.5 0  -0.419999999999778 -0.5 0  -0.4299999999998058 -0.5 0  -0.4399999999998336 -0.5 0  -0.4499999999998613 -0.5 0  -0.4599999999998891 -0.5 0  -0.4699999999999167 -0.5 0  -0.4799999999999445 -0.5 0  -0.4899999999999722 -0.5 0  -0.5 -0.4900000000000277 0  -0.5 -0.4800000000000555 0  -0.5 -0.4700000000000832 0  -0.5 -0.4600000000001109 0  -0.5 -0.4500000000001387 0  -0.5 -0.4400000000001664 0  -0.5 -0.4300000000001942 0  -0.5 -0.4200000000002219 0  -0.5 -0.4100000000002497 0  -0.5 -0.4000000000002774 0  -0.5 -0.3900000000003052 0  -0.5 -0.3800000000003328 0  -0.5 -0.3700000000003606 0  -0.5 -0.3600000000003883 0  -0.5 -0.3500000000004161 0  -0.5 -0.3400000000004438 0  -0.5 -0.3300000000004716 0  -0.5 -0.3200000000004993 0  -0.5 -0.3100000000005271 0  -0.5 -0.3000000000005548 0  -0.5 -0.2900000000005825 0  -0.5 -0.2800000000006103 0  -0.5 -0.2700000000006381 0  -0.5 -0.2600000000006658 0  -0.5 -0.2500000000006935 0  -0.5 -0.2400000000007212 0  -0.5 -0.230000000000749 0  -0.5 -0.2200000000007767 0  -0.5 -0.2100000000008044 0  -0.5 -0.2000000000008322 0  -0.5 -0.19000000000086 0  -0.5 -0.1800000000008877 0  -0.5 -0.1700000000009154 0  -0.5 -0.1600000000009431 0  -0.5 -0.1500000000009709 0  -0.5 -0.1400000000009986 0  -0.5 -0.1300000000010264 0  -0.5 -0.1200000000010541 0  -0.5 -0.1100000000010818 0  -0.5 -0.1000000000011096 0  -0.5 -0.09000000000113734 0  -0.5 -0.08000000000116503 0  -0.5 -0.07000000000119283 0  -0.5 -0.06000000000122058 0  -0.5 -0.05000000000124827 0  -0.5 -0.04000000000127607 0  -0.5 -0.03000000000130376 0  -0.5 -0.02000000000133151 0  -0.5 -0.01000000000135925 0  -0.5 -1.376121439022882e-12 0  -0.5 0.009999999998640763 0  -0.5 0.01999999999866864 0  -0.5 0.02999999999869629 0  -0.5 0.03999999999872406 0  -0.5 0.04999999999875182 0  -0.5 0.05999999999877947 0  -0.5 0.06999999999880724 0  -0.5 0.079999999998835 0  -0.5 0.08999999999886266 0  -0.5 0.09999999999889042
[...]
<PointData  Vectors="f_27-0"> 
<DataArray  type="Float64"  Name="f_27-0"  NumberOfComponents="3" format="ascii">9.0224702088399344e-04 4.5189667231491509e-02 0.0000000000000000e+00  -1.2835002472344379e-03 4.5094115653542745e-02 0.0000000000000000e+00  9.3509237612958337e-05 4.0309358660334173e-02 0.0000000000000000e+00  7.6448573436255983e-05 4.0252872818159237e-02 0.0000000000000000e+00  -1.5203410936116676e-03 6.3616385064576226e-03 0.0000000000000000e+00  1.4940287858094539e-03 6.3502974169840068e-03 0.0000000000000000e+00  -1.1343473655648685e-03 6.3641501565976704e-03 0.0000000000000000e+00  1.1755731389938968e-03 6.2927258332221873e-03 0.0000000000000000e+00  2.0157357072613374e-03 4.4533040592444874e-02 0.0000000000000000e+00  3.0925429384822496e-03 4.3809239646238708e-02 0.0000000000000000e+00  4.1278466590205483e-03 4.3022153260867640e-02 0.0000000000000000e+00  5.1188443966001859e-03 4.2175038700122604e-02 0.0000000000000000e+00  6.0608423870163325e-03 4.1272932041726489e-02 0.0000000000000000e+00  6.9519172890308159e-03 4.0319256186947830e-02 0.0000000000000000e+00  7.7879581640258261e-03 3.9320298635979939e-02 0.0000000000000000e+00  8.5678499565304735e-03 3.8280029070701396e-02 0.0000000000000000e+00  9.2890460199639251e-03 3.7203622118806533e-02 0.0000000000000000e+00  9.9490693192001434e-03 3.6096951245101372e-02 0.0000000000000000e+00  1.0548259934170322e-02 3.4965107261414038e-02 0.0000000000000000e+00  1.1085556264326031e-02 3.3812706973265161e-02 0.0000000000000000e+00  1.1560535814366819e-02 3.2645666821036402e-02 0.0000000000000000e+00  1.1973888395829458e-02 3.1467750653692644e-02 0.0000000000000000e+00  1.2324710070376931e-02 3.0286015089011100e-02 0.0000000000000000e+00  1.2615185096443869e-02 2.9103501869075250e-02 0.0000000000000000e+00  1.2846082705329515e-02 2.7924565220283359e-02 0.0000000000000000e+00  1.3018239545084024e-02 2.6754632538092998e-02 0.0000000000000000e+00  1.3133790618386631e-02 2.5597516050067007e-02 0.0000000000000000e+00  1.3194704560284591e-02 2.4455841038295661e-02 0.0000000000000000e+00  1.3202413725956430e-02 2.3333898787671753e-02 0.0000000000000000e+00  1.3159545163304226e-02 2.2234112272369239e-02 0.0000000000000000e+00  1.3068247638671255e-02 2.1159266954184568e-02 0.0000000000000000e+00  1.2930378910138421e-02 2.0113501460375178e-02 0.0000000000000000e+00  1.2748641160773315e-02 1.9097589507463358e-02 0.0000000000000000e+00  1.2525681517848868e-02 1.8113868400306436e-02 0.0000000000000000e+00  1.2263410505726534e-02 1.7164103226855569e-02 0.0000000000000000e+00  1.1964287985951947e-02 1.6250566716537556e-02 0.0000000000000000e+00  1.1631013122884379e-02 1.5372938395624480e-02 0.0000000000000000e+00  1.1265776271589149e-02 1.4533425115019399e-02 0.0000000000000000e+00  1.0870600672469033e-02 1.3732856516295607e-02 0.0000000000000000e+00  1.0447854892744185e-02 1.2971963195304116e-02 0.0000000000000000e+00  9.9996202424814107e-03 1.2251736900345995e-02 0.0000000000000000e+00  9.5280509134758433e-03 1.1571829876447781e-02 0.0000000000000000e+00  9.0347888442852756e-03 1.0932801213613371e-02 0.0000000000000000e+00  8.5218339207563058e-03 1.0334401150044803e-02 0.0000000000000000e+00  7.9911522000888462e-03 9.7779703263327390e-03 0.0000000000000000e+00  7.4440792239509109e-03 9.2626322861982541e-03 0.0000000000000000e+00  6.8824634567657486e-03 8.7882778301567321e-03 0.0000000000000000e+00  6.3077792214085967e-03 8.3558114988548423e-03 0.0000000000000000e+00  5.7216913073441207e-03 7.9644637593474805e-03 0.0000000000000000e+00  5.1255109023303049e-03 7.6135982675657049e-03 0.0000000000000000e+00  4.5201268122685226e-03 7.3045884236187988e-03 0.0000000000000000e+00  3.9070581273532336e-03 7.0361368528343562e-03 0.0000000000000000e+00  3.2874239503090162e-03 6.8084512865294409e-03 0.0000000000000000e+00  2.6622385597095213e-03 6.6211207447200654e-03 0.0000000000000000e+00  2.0331126142993112e-03 6.4747562143455777e-03 0.0000000000000000e+00  1.4005951479282082e-03 6.3685304179583397e-03 0.0000000000000000e+00  7.6622887985539859e-04 6.3023105453592415e-03 0.0000000000000000e+00  1.3037598247727210e-04 6.2768592490880263e-03 0.0000000000000000e+00  -5.0560186142964620e-04 6.2916309317300381e-03 0.0000000000000000e+00  -1.1404567958295361e-03 6.3459371508461622e-03 0.0000000000000000e+00  -1.7735297591535818e-03 6.4404399005319928e-03 0.0000000000000000e+00  -2.4035287520087828e-03 6.5756545941872474e-03 0.0000000000000000e+00  -3.0297005381603463e-03 6.7516344401971533e-03 0.0000000000000000e+00  -3.6506663931731992e-03 6.9678555094200394e-03 0.0000000000000000e+00  -4.2654878857290657e-03 7.2247476125589854e-03 0.0000000000000000e+00  -4.8728530216711995e-03 7.5221848812589793e-03 0.0000000000000000e+00  -5.4718404232733326e-03 7.8607016903989198e-03 0.0000000000000000e+00  -6.0610492949973649e-03 8.2397037645594445e-03 0.0000000000000000e+00  -6.6388917944878332e-03 8.6605179615602736e-03 0.0000000000000000e+00  -7.2045339933664507e-03 9.1220235446216793e-03 0.0000000000000000e+00  -7.7558753727524996e-03 9.6246725421111727e-03 0.0000000000000000e+00  -8.2916759162016754e-03 1.0168569033273232e-02 0.0000000000000000e+00  -8.8103784495790673e-03 1.0753471520543253e-02 0.0000000000000000e+00  -9.3099072966675387e-03 1.1379302949473355e-02 0.0000000000000000e+00  -9.7890418884387324e-03 1.2046284359313970e-02 0.0000000000000000e+00  -1.0244963673009198e-02 1.2754081141185187e-02 0.0000000000000000e+00  -1.0676839348271927e-02 1.3501811930977959e-02 0.0000000000000000e+00  -1.1081464831826223e-02 1.4289427913599271e-02 0.0000000000000000e+00  -1.1457433446171165e-02 1.5116759840838479e-02 0.0000000000000000e+00  -1.1802583687200557e-02 1.5981188822415174e-02 0.0000000000000000e+00  -1.2114308730763221e-02 1.6882373238120349e-02 0.0000000000000000e+00  -1.2390656463651487e-02 1.7820359575625947e-02 0.0000000000000000e+00  -1.2628652649455410e-02 1.8792862173748301e-02 0.0000000000000000e+00  -1.2826996280061976e-02 1.9798182783215029e-02 0.0000000000000000e+00  -1.2981804603377389e-02 2.0835119759346675e-02 0.0000000000000000e+00  -1.3091953153787896e-02 2.1899650653801266e-02 0.0000000000000000e+00  -1.3154556273776999e-02 2.2991383696172117e-02 0.0000000000000000e+00  -1.3167288196199852e-02 2.4106899179147812e-02 0.0000000000000000e+00  -1.3128258562659667e-02 2.5243126553249565e-02 0.0000000000000000e+00  -1.3035050316593650e-02 2.6396591871812151e-02 0.0000000000000000e+00  -1.2886165672806682e-02 2.7564136630793348e-02 0.0000000000000000e+00  -1.2679051283035944e-02 2.8742681197321578e-02 0.0000000000000000e+00  -1.2413398659600344e-02 2.9925979548561854e-02 0.0000000000000000e+00  -1.2087303275922761e-02 3.1111236686105732e-02 0.0000000000000000e+00  -1.1699397278522206e-02 3.2294109515462278e-02 0.0000000000000000e+00  -1.1249433951998754e-02 3.3468963337102822e-02 0.0000000000000000e+00  -1.0737126619507563e-02 3.4630845284580596e-02 0.0000000000000000e+00  -1.0162584730901028e-02 3.5774519089760197e-02 0.0000000000000000e+00  -9.5261698950918038e-03 3.6895013002717164e-02 0.0000000000000000e+00  -8.8278469158462377e-03 3.7987875771404202e-02 0.0000000000000000e+00  -8.0699669893922951e-03 3.9046606456348130e-02 0.0000000000000000e+00  -7.2539667194142171e-03 4.0066429857714567e-02 0.0000000000000000e+00  -6.3813589741296495e-03 4.1042804212979206e-02 0.0000000000000000e+00  -5.4562429760286078e-03 4.1968893425475606e-02 0.0000000000000000e+00  -4.4797064745190030e-03 4.2841882072060730e-02 0.0000000000000000e+00  -3.4561083898102356e-03 4.3656217771251976e-02 0.0000000000000000e+00  -2.3894513426939803e-03 4.4408099875405296e-02 0.0000000000000000e+00  -1.5352679511422538e-03 4.6245822898134295e-02 0.0000000000000000e+00  -1.8048168067032481e-03 4.7453322178539571e-02 0.0000000000000000e+00  -2.0917072922535555e-03 4.8722564830235224e-02 0.0000000000000000e+00  -2.3978929210543777e-03 5.0055128151827569e-02 0.0000000000000000e+00  -2.7242436472985280e-03 5.1457212524201268e-02 0.0000000000000000e+00  -3.0737464470734139e-03 5.2931265422743963e-02 0.0000000000000000e+00  -3.4422827061884745e-03 5.4482524029395046e-02 0.0000000000000000e+00  -3.8370241878117038e-03 5.6117088638969942e-02 0.0000000000000000e+00  -4.2585032559307170e-03 5.7839163910163582e-02 0.0000000000000000e+00  -4.7050837185942792e-03 5.9656364575105834e-02 0.0000000000000000e+00  -5.1806206129049199e-03 6.1574536198216852e-02 0.0000000000000000e+00  -5.6880870850298014e-03 6.3599553834982031e-02 0.0000000000000000e+00  -6.2291807791423790e-03 6.5741145393013609e-02 0.0000000000000000e+00  -6.8083537357574711e-03 6.8003536755418384e-02 0.0000000000000000e+00  -7.4248209962101252e-03 7.0399093684069533e-02 0.0000000000000000e+00  -8.0849116930901237e-03 7.2935587162934190e-02 0.0000000000000000e+00  -8.7942163180508466e-03 7.5618739444655608e-02 0.0000000000000000e+00  -9.5510769655190123e-03 7.8463233479150810e-02 0.0000000000000000e+00  -1.0362409778307616e-02 8.1474824120781025e-02 0.0000000000000000e+00  -1.1236017361831526e-02 8.4659392744363557e-02 0.0000000000000000e+00  -1.2170653466229243e-02 8.8029754843296185e-02 0.0000000000000000e+00  -1.3172086693327825e-02 9.1586840584430812e-02 0.0000000000000000e+00  -1.4237410843632704e-02 9.5333614719539786e-02 0.0000000000000000e+00  -1.5358216788379260e-02 9.9269505243869585e-02 0.0000000000000000e+00  -1.6515187850757736e-02 1.0339074720385626e-01 0.0000000000000000e+00  -1.7688970461272473e-02 1.0766902724378889e-01 0.0000000000000000e+00  -1.8816435240467253e-02 1.1208469223520970e-01 0.0000000000000000e+00  -1.9834292444113846e-02 1.1658980693347210e-01 0.0000000000000000e+00  -2.0598780942288942e-02 1.2111351224222903e-01 0.0000000000000000e+00  -2.0957353643315867e-02 1.2557564689720332e-01 0.0000000000000000e+00  -2.0664921930664892e-02 1.2985279594204746e-01 0.0000000000000000e+00  -1.9413157930428367e-02 1.3379036020531043e-01 0.0000000000000000e+00  -1.6808898759469178e-02 1.3717486125298808e-01 0.0000000000000000e+00  -1.2391618360454791e-02 1.3978421984844147e-01 0.0000000000000000e+00  -5.6522506180844987e-03 1.4131542364221403e-01 0.0000000000000000e+00  3.8466314958169076e-03 1.4150474582129455e-01 0.0000000000000000e+00  1.6297724794286601e-02 1.3999914339497996e-01 0.0000000000000000e+00  3.1458779092186487e-02 1.3664874041924507e-01 0.0000000000000000e+00  4.8182050850945006e-02 1.3115916850948700e-01 0.0000000000000000e+00  6.4190626139591880e-02 1.2372567603404916e-01 0.0000000000000000e+00  7.6007949891345669e-02 1.1418491075680415e-01 0.0000000000000000e+00  7.9420393717305846e-02 1.0280938119327131e-01 0.0000000000000000e+00  6.9365903899281212e-02 9.0232043990103372e-02 0.0000000000000000e+00  4.3349959494493932e-02 7.8219403546831268e-02 0.0000000000000000e+00  2.3854459034301236e-03 7.0089072155594179e-02 0.0000000000000000e+00  -4.2979720736578353e-02 7.0509466903615536e-02 0.0000000000000000e+00  -7.5012884007962480e-02 8.2933638706331927e-02 0.0000000000000000e+00  -8.2548443322624565e-02 1.0447223681591644e-01 0.0000000000000000e+00  -7.0975696093182647e-02 1.2697765370708344e-01 0.0000000000000000e+00  -5.4391179253120515e-02 1.4404491520233562e-01 0.0000000000000000e+00  -4.0058488839275347e-02 1.5518941255257976e-01 0.0000000000000000e+00  -2.8569153070847071e-02 1.6197472625735854e-01 0.0000000000000000e+00  -1.9301746804148770e-02 1.6562776341474139e-01 0.0000000000000000e+00  -1.1711515881468982e-02 1.6698147668501226e-01 0.0000000000000000e+00  -5.5194025411113394e-03 1.6659347898902868e-01 0.0000000000000000e+00  -4.5835945387471183e-04 1.6486783765675381e-01 0.0000000000000000e+00  3.6068252477596328e-03 1.6213097273414456e-01 0.0000000000000000e+00  6.8204072736465339e-03 1.5861448186656874e-01 0.0000000000000000e+00  9.2950170500968581e-03 1.5453334287263498e-01 0.0000000000000000e+00  1.1137096236790867e-02 1.5004822234730969e-01 0.0000000000000000e+00  1.2444246767126335e-02 1.4529345550264405e-01 0.0000000000000000e+00  1.3305006408452480e-02 1.4038030457372450e-01 0.0000000000000000e+00  1.3800042136969511e-02 1.3540413124032749e-01 0.0000000000000000e+00  1.4000457258777769e-02 1.3043345740134032e-01 0.0000000000000000e+00  1.3967518767545432e-02 1.2552713058826345e-01 0.0000000000000000e+00  1.3755479363190926e-02 1.2072371912113980e-01 0.0000000000000000e+00  1.3408684221016444e-02 1.1606137913087504e-01 0.0000000000000000e+00  1.2970050887403444e-02 1.1154756177600039e-01 0.0000000000000000e+00  1.2463120595338547e-02 1.0721501339941791e-01 0.0000000000000000e+00  1.1914747478217970e-02 1.0305720921071970e-01 0.0000000000000000e+00  1.1337937963501665e-02 9.9086171134089365e-02 0.0000000000000000e+00  1.0745137466587486e-02 9.5302048203701140e-02 0.0000000000000000e+00  1.0148430948123973e-02 9.1704957070433149e-02 0.0000000000000000e+00  9.5594764144125658e-03 8.8283394426593165e-02 0.0000000000000000e+00  8.9824117762483339e-03 8.5031461193543975e-02 0.0000000000000000e+00  8.4164854639385191e-03 8.1951011631600429e-02 0.0000000000000000e+00  7.8706611447296945e-03 7.9023740364318085e-02 0.0000000000000000e+00  7.3367473385507406e-03 7.6250270383226681e-02 0.0000000000000000e+00  6.8239299549225753e-03 7.3617476740934037e-02 0.0000000000000000e+00  6.3307592449155566e-03 7.1120884759818578e-02 0.0000000000000000e+00  5.8559708524507925e-03 6.8752149337945975e-02 0.0000000000000000e+00  5.4006793615841188e-03 6.6502657705585930e-02 0.0000000000000000e+00  4.9647673231908440e-03 6.4368154164936145e-02 0.0000000000000000e+00  4.5481361275430581e-03 6.2338535471910331e-02 0.0000000000000000e+00  4.1479238626580392e-03 6.0411426423028255e-02 0.0000000000000000e+00  3.7666535785671252e-03 5.8577454607783984e-02 0.0000000000000000e+00  3.4043733903366424e-03 5.6833404647519237e-02 0.0000000000000000e+00  3.0586344265531658e-03 5.5172550080045242e-02 0.0000000000000000e+00  2.7292760791621695e-03 5.3591763325053422e-02 0.0000000000000000e+00  2.4151949750841001e-03 5.2084753371534849e-02 0.0000000000000000e+00  2.1178568028723779e-03 5.0648698088796358e-02 0.0000000000000000e+00  1.8369760914127391e-03 4.9278044148076613e-02 0.0000000000000000e+00  1.5709698049676364e-03 4.7970787502493943e-02 0.0000000000000000e+00  1.3190989605997650e-03 4.6722684730836773e-02 0.0000000000000000e+00  1.0821092058888495e-03 4.5530324855318313e-02 0.0000000000000000e+00  8.5771609967039370e-04 4.4391416449159664e-02 0.0000000000000000e+00  6.4685343581598093e-04 4.3301798290619413e-02 0.0000000000000000e+00  4.4996110228491423e-04 4.2259530809777471e-02 0.0000000000000000e+00  2.6564792357682639e-04 4.1262853533632224e-02 0.0000000000000000e+00  1.0121901996338544e-03 3.9756324175837666e-02 0.0000000000000000e+00  1.9011630464853368e-03 3.9150666828721745e-02 0.0000000000000000e+00  2.7582259616511558e-03 3.8494560102895592e-02 0.0000000000000000e+00  3.5798433689278606e-03 3.7791575909551116e-02 0.0000000000000000e+00  4.3641403184852346e-03 3.7044138428160463e-02 0.0000000000000000e+00  5.1080571264500493e-03 3.6256709263840482e-02 0.0000000000000000e+00  5.8101458860335920e-03 3.5431632901114264e-02 0.0000000000000000e+00  6.4679526946076196e-03 3.4573449906447874e-02 0.0000000000000000e+00  7.0799028734939394e-03 3.3685496622749944e-02 0.0000000000000000e+00  7.6456216266300231e-03 3.2770745223679038e-02 0.0000000000000000e+00  8.1633321871552172e-03 3.1833751000227006e-02 0.0000000000000000e+00  8.6323945088007080e-03 3.0879316298649116e-02 0.0000000000000000e+00  9.0522961066974716e-03 2.9910264175899679e-02 0.0000000000000000e+00  9.4224846832966763e-03 2.8931163097288819e-02 0.0000000000000000e+00  9.7441839738748245e-03 2.7944332149343078e-02 0.0000000000000000e+00  1.0016870488780772e-02 2.6954701059637140e-02 0.0000000000000000e+00  1.0241141143398235e-02 2.5965857328931443e-02 0.0000000000000000e+00  1.0418120846291637e-02 2.4980809673968041e-02 0.0000000000000000e+00  1.0548466052099708e-02 2.4002460945876953e-02 0.0000000000000000e+00  1.0633223217866162e-02 2.3034746316154583e-02 0.0000000000000000e+00  1.0673876688397152e-02 2.2080006291521199e-02 0.0000000000000000e+00  1.0671608194641342e-02 2.1141495618824415e-02 0.0000000000000000e+00  1.0627787681627723e-02 2.0221774805653649e-02 0.0000000000000000e+00  1.0544604606906189e-02 1.9322133305169131e-02 0.0000000000000000e+00  1.0423243880155451e-02 1.8445602595849375e-02 0.0000000000000000e+00  1.0265392510335957e-02 1.7593986279202799e-02 0.0000000000000000e+00  1.0073017504877267e-02 1.6769183018223218e-02 0.0000000000000000e+00  9.8479480106508574e-03 1.5971958056615221e-02 0.0000000000000000e+00  9.5918383914640106e-03 1.5205089874280297e-02 0.0000000000000000e+00  9.3063532660220515e-03 1.4469077449031871e-02 0.0000000000000000e+00  8.9936337230157766e-03 1.3765008844771446e-02 0.0000000000000000e+00  8.6552446280637966e-03 1.3093847712946981e-02 0.0000000000000000e+00  8.2930354320376806e-03 1.2456264412210694e-02 0.0000000000000000e+00  7.9084612025005340e-03 1.1853479414016242e-02 0.0000000000000000e+00  7.5034058533254263e-03 1.1285571364078918e-02 0.0000000000000000e+00  7.0795471540811882e-03 1.0753659459537957e-02 0.0000000000000000e+00  6.6380704818399805e-03 1.0257374318912932e-02 0.0000000000000000e+00  6.1808224728920422e-03 9.7975180048420658e-03 0.0000000000000000e+00  5.7090112841845821e-03 9.3740584213057292e-03 0.0000000000000000e+00  5.2245329786111145e-03 8.9869708039729563e-03 0.0000000000000000e+00  4.7285007636159128e-03 8.6372836571857389e-03 0.0000000000000000e+00  4.2221248984572928e-03 8.3254276170494322e-03 0.0000000000000000e+00  3.7067961620024241e-03 8.0499087288688972e-03 0.0000000000000000e+00  3.1835220145347599e-03 7.8116335320256199e-03 0.0000000000000000e+00  2.6536231234022137e-03 7.6104789660499028e-03 0.0000000000000000e+00  2.1184460307338312e-03 7.4465077255824064e-03 0.0000000000000000e+00  1.5788633255711673e-03 7.3192631545649124e-03 0.0000000000000000e+00  1.0365384215190142e-03 7.2296488609708181e-03 0.0000000000000000e+00  4.9202222409077203e-04 7.1777406634007061e-03 0.0000000000000000e+00  -5.3345169987364786e-05 7.1626380030198906e-03 0.0000000000000000e+00  -5.9863394474819406e-04 7.1844208122225023e-03 0.0000000000000000e+00  -1.1426886572912609e-03 7.2437498801104921e-03 0.0000000000000000e+00  -1.6840824452244644e-03 7.3405411797246804e-03 0.0000000000000000e+00  -2.2219678724193373e-03 7.4744450222917263e-03 0.0000000000000000e+00  -2.7552263657851356e-03 7.6452831919726436e-03 0.0000000000000000e+00  -3.2829854596610275e-03 7.8531406623241085e-03 0.0000000000000000e+00  -3.8035728642414547e-03 8.0978430246201032e-03 0.0000000000000000e+00  -4.3161236390960433e-03 8.3800287402911074e-03 0.0000000000000000e+00  -4.8191866259854454e-03 8.6991988066487599e-03 0.0000000000000000e+00  -5.3114787697381817e-03 9.0556111345494392e-03 0.0000000000000000e+00  -5.7919439892247298e-03 9.4480931721322610e-03 0.0000000000000000e+00  -6.2587786257619141e-03 9.8776134069153317e-03 0.0000000000000000e+00  -6.7111501732845932e-03 1.0343385584770173e-02 0.0000000000000000e+00  -7.1471835354321158e-03 1.0845177044053380e-02 0.0000000000000000e+00  -7.5653474575670485e-03 1.1382881181708604e-02 0.0000000000000000e+00  -7.9642550239191895e-03 1.1956020441469106e-02 0.0000000000000000e+00  -8.3419593588351364e-03 1.2563763795518233e-02 0.0000000000000000e+00  -8.6974480313810557e-03 1.3205271589804815e-02 0.0000000000000000e+00  -9.0281915065340435e-03 1.3880420735956387e-02 0.0000000000000000e+00  -9.3333840637757296e-03 1.4587940919348555e-02 0.0000000000000000e+00  -9.6106978784774814e-03 1.5326721919344376e-02 0.0000000000000000e+00  -9.8582702963912298e-03 1.6096640411062350e-02 0.0000000000000000e+00  -1.0074599221367787e-02 1.6896020753230795e-02 0.0000000000000000e+00  -1.0257964873228047e-02 1.7722395261554790e-02 0.0000000000000000e+00  -1.0406766410827085e-02 1.8575155824621853e-02 0.0000000000000000e+00  -1.0518535859487607e-02 1.9452164046814414e-02 0.0000000000000000e+00  -1.0592666518558809e-02