<?xml version="1.0"?>
<VTKFile type="UnstructuredGrid"  version="0.1"  >
<UnstructuredGrid>
<Piece  NumberOfPoints="16275" NumberOfCells="32468">
<Points>
<DataArray  type="Float64"  NumberOfComponents="3"  format="ascii">-0.5 0.5 0  0.5 0.5 0  0.5 -0.5 0  -0.5 -0.5 0  -1 1 0  1 1 0  1 -1 0  -1 -1 0  -0.4900000000000277 0.5 0  -0.4800000000000555 0.5 0  -0.4700000000000832 0.5 0  -0.4600000000001109 0.5 0  -0.4500000000001387 0.5 0  -0.4400000000001664 0.5 0  -0.4300000000001942 0.5 0  -0.4200000000002219 0.5 0  -0.4100000000002497 0.5 0  -0.4000000000002774 0.5 0  -0.3900000000003052 0.5 0  -0.3800000000003328 0.5 0  -0.3700000000003606 0.5 0  -0.3600000000003883 0.5 0  -0.3500000000004161 0.5 0  -0.3400000000004438 0.5 0  -0.3300000000004716 0.5 0  -0.3200000000004993 0.5 0  -0.3100000000005271 0.5 0  -0.3000000000005548 0.5 0  -0.2900000000005825 0.5 0  -0.2800000000006103 0.5 0  -0.2700000000006381 0.5 0  -0.2600000000006658 0.5 0  -0.2500000000006935 0.5 0  -0.2400000000007212 0.5 0  -0.230000000000749 0.5 0  -0.2200000000007767 0.5 0  -0.2100000000008044 0.5 0  -0.2000000000008322 0.5 0  -0.19000000000086 0.5 0  -0.1800000000008877 0.5 0  -0.1700000000009154 0.5 0  -0.1600000000009431 0.5 0  -0.1500000000009709 0.5 0  -0.1400000000009986 0.5 0  -0.1300000000010264 0.5 0  -0.1200000000010541 0.5 0  -0.1100000000010818 0.5 0  -0.1000000000011096 0.5 0  -0.09000000000113734 0.5 0  -0.08000000000116503 0.5 0  -0.07000000000119283 0.5 0  -0.06000000000122058 0.5 0  -0.05000000000124827 0.5 0  -0.04000000000127607 0.5 0  -0.03000000000130376 0.5 0  -0.02000000000133151 0.5 0  -0.01000000000135925 0.5 0  -1.376121439022882e-12 0.5 0  0.009999999998640763 0.5 0  0.01999999999866864 0.5 0  0.02999999999869629 0.5 0  0.03999999999872406 0.5 0  0.04999999999875182 0.5 0  0.05999999999877947 0.5 0  0.06999999999880724 0.5 0  0.079999999998835 0.5 0  0.08999999999886266 0.5 0  0.09999999999889042 0.5 0  0.1099999999989182 0.5 0  0.1199999999989459 0.5 0  0.1299999999989737 0.5 0  0.1399999999990014 0.5 0  0.1499999999990291 0.5 0  0.1599999999990568 0.5 0  0.1699999999990847 0.5 0  0.1799999999991124 0.5 0  0.1899999999991401 0.5 0  0.1999999999991678 0.5 0  0.2099999999991955 0.5 0  0.2199999999992234 0.5 0  0.2299999999992511 0.5 0  0.2399999999992788 0.5 0  0.2499999999993066 0.5 0  0.2599999999993342 0.5 0  0.269999999999362 0.5 0  0.2799999999993897 0.5 0  0.2899999999994175 0.5 0  0.2999999999994452 0.5 0  0.3099999999994729 0.5 0  0.3199999999995007 0.5 0  0.3299999999995284 0.5 0  0.3399999999995562 0.5 0  0.3499999999995839 0.5 0  0.3599999999996116 0.5 0  0.3699999999996393 0.5 0  0.379999999999667 0.5 0  0.3899999999996949 0.5 0  0.3999999999997226 0.5 0  0.4099999999997503 0.5 0  0.419999999999778 0.5 0  0.4299999999998058 0.5 0  0.4399999999998336 0.5 0  0.4499999999998613 0.5 0  0.4599999999998891 0.5 0  0.4699999999999167 0.5 0  0.4799999999999445 0.5 0  0.4899999999999722 0.5 0  0.5 0.4900000000000277 0  0.5 0.4800000000000555 0  0.5 0.4700000000000832 0  0.5 0.4600000000001109 0  0.5 0.4500000000001387 0  0.5 0.4400000000001664 0  0.5 0.4300000000001942 0  0.5 0.4200000000002219 0  0.5 0.4100000000002497 0  0.5 0.4000000000002774 0  0.5 0.3900000000003052 0  0.5 0.3800000000003328 0  0.5 0.3700000000003606 0  0.5 0.3600000000003883 0  0.5 0.3500000000004161 0  0.5 0.3400000000004438 0  0.5 0.3300000000004716 0  0.5 0.3200000000004993 0  0.5 0.3100000000005271 0  0.5 0.3000000000005548 0  0.5 0.2900000000005825 0  0.5 0.2800000000006103 0  0.5 0.2700000000006381 0  0.5 0.2600000000006658 0  0.5 0.2500000000006935 0  0.5 0.2400000000007212 0  0.5 0.230000000000749 0  0.5 0.2200000000007767 0  0.5 0.2100000000008044 0  0.5 0.2000000000008322 0  0.5 0.19000000000086 0  0.5 0.1800000000008877 0  0.5 0.1700000000009154 0  0.5 0.1600000000009431 0  0.5 0.1500000000009709 0  0.5 0.1400000000009986 0  0.5 0.1300000000010264 0  0.5 0.1200000000010541 0  0.5 0.1100000000010818 0  0.5 0.1000000000011096 0  0.5 0.09000000000113734 0  0.5 0.08000000000116503 0  0.5 0.07000000000119283 0  0.5 0.06000000000122058 0  0.5 0.05000000000124827 0  0.5 0.04000000000127607 0  0.5 0.03000000000130376 0  0.5 0.02000000000133151 0  0.5 0.01000000000135925 0  0.5 1.376121439022882e-12 0  0.5 -0.009999999998640763 0  0.5 -0.01999999999866864 0  0.5 -0.02999999999869629 0  0.5 -0.03999999999872406 0  0.5 -0.04999999999875182 0  0.5 -0.05999999999877947 0  0.5 -0.06999999999880724 0  0.5 -0.079999999998835 0  0.5 -0.08999999999886266 0  0.5 -0.09999999999889042 0  0.5 -0.1099999999989182 0  0.5 -0.1199999999989459 0  0.5 -0.1299999999989737 0  0.5 -0.1399999999990014 0  0.5 -0.1499999999990291 0  0.5 -0.1599999999990568 0  0.5 -0.1699999999990847 0  0.5 -0.1799999999991124 0  0.5 -0.1899999999991401 0  0.5 -0.1999999999991678 0  0.5 -0.2099999999991955 0  0.5 -0.2199999999992234 0  0.5 -0.2299999999992511 0  0.5 -0.2399999999992788 0  0.5 -0.2499999999993066 0  0.5 -0.2599999999993342 0  0.5 -0.269999999999362 0  0.5 -0.2799999999993897 0  0.5 -0.2899999999994175 0  0.5 -0.2999999999994452 0  0.5 -0.3099999999994729 0  0.5 -0.3199999999995007 0  0.5 -0.3299999999995284 0  0.5 -0.3399999999995562 0  0.5 -0.3499999999995839 0  0.5 -0.3599999999996116 0  0.5 -0.3699999999996393 0  0.5 -0.379999999999667 0  0.5 -0.3899999999996949 0  0.5 -0.3999999999997226 0  0.5 -0.4099999999997503 0  0.5 -0.419999999999778 0  0.5 -0.4299999999998058 0  0.5 -0.4399999999998336 0  0.5 -0.4499999999998613 0  0.5 -0.4599999999998891 0  0.5 -0.4699999999999167 0  0.5 -0.4799999999999445 0  0.5 -0.4899999999999722 0  0.4900000000000277 -0.5 0  0.4800000000000555 -0.5 0  0.4700000000000832 -0.5 0  0.4600000000001109 -0.5 0  0.4500000000001387 -0.5 0  0.4400000000001664 -0.5 0  0.4300000000001942 -0.5 0  0.4200000000002219 -0.5 0  0.4100000000002497 -0.5 0  0.4000000000002774 -0.5 0  0.3900000000003052 -0.5 0  0.3800000000003328 -0.5 0  0.3700000000003606 -0.5 0  0.3600000000003883 -0.5 0  0.3500000000004161 -0.5 0  0.3400000000004438 -0.5 0  0.3300000000004716 -0.5 0  0.3200000000004993 -0.5 0  0.3100000000005271 -0.5 0  0.3000000000005548 -0.5 0  0.2900000000005825 -0.5 0  0.2800000000006103 -0.5 0  0.2700000000006381 -0.5 0  0.2600000000006658 -0.5 0  0.2500000000006935 -0.5 0  0.2400000000007212 -0.5 0  0.230000000000749 -0.5 0  0.2200000000007767 -0.5 0  0.2100000000008044 -0.5 0  0.2000000000008322 -0.5 0  0.19000000000086 -0.5 0  0.1800000000008877 -0.5 0  0.1700000000009154 -0.5 0  0.1600000000009431 -0.5 0  0.1500000000009709 -0.5 0  0.1400000000009986 -0.5 0  0.1300000000010264 -0.5 0  0.1200000000010541 -0.5 0  0.1100000000010818 -0.5 0  0.1000000000011096 -0.5 0  0.09000000000113734 -0.5 0  0.08000000000116503 -0.5 0  0.07000000000119283 -0.5 0  0.06000000000122058 -0.5 0  0.05000000000124827 -0.5 0  0.04000000000127607 -0.5 0  0.03000000000130376 -0.5 0  0.02000000000133151 -0.5 0  0.01000000000135925 -0.5 0  1.376121439022882e-12 -0.5 0  -0.009999999998640763 -0.5 0  -0.01999999999866864 -0.5 0  -0.02999999999869629 -0.5 0  -0.03999999999872406 -0.5 0  -0.04999999999875182 -0.5 0  -0.05999999999877947 -0.5 0  -0.06999999999880724 -0.5 0  -0.079999999998835 -0.5 0  -0.08999999999886266 -0.5 0  -0.09999999999889042 -0.5 0  -0.1099999999989182 -0.5 0  -0.1199999999989459 -0.5 0  -0.1299999999989737 -0.5 0  -0.1399999999990014 -0.5 0  -0.1499999999990291 -0.5 0  -0.1599999999990568 -0.5 0  -0.1699999999990847 -0.5 0  -0.1799999999991124 -0.5 0  -0.1899999999991401 -0.5 0  -0.1999999999991678 -0.5 0  -0.2099999999991955 -0.5 0  -0.2199999999992234 -0.5 0  -0.2299999999992511 -0.5 0  -0.2399999999992788 -0.5 0  -0.2499999999993066 -0.5 0  -0.2599999999993342 -0.5 0  -0.269999999999362 -0.5 0  -0.2799999999993897 -0.5 0  -0.2899999999994175 -0.5 0  -0.2999999999994452 -0.5 0  -0.3099999999994729 -0.5 0  -0.3199999999995007 -0.5 0  -0.3299999999995284 -0.5 0  -0.3399999999995562 -0.5 0  -0.3499999999995839 -0.5 0  -0.3599999999996116 -0.5 0  -0.3699999999996393 -0.5 0  -0.379999999999667 -0.5 0  -0.3899999999996949 -0.5 0  -0.3999999999997226 -0.5 0  -0.4099999999997503 -0.5 0  -0.419999999999778 -0.5 0  -0.4299999999998058 -0.5 0  -0.4399999999998336 -0.5 0  -0.4499999999998613 -0.5 0  -0.4599999999998891 -0.5 0  -0.4699999999999167 -0.5 0  -0.4799999999999445 -0.5 0  -0.4899999999999722 -0.5 0  -0.5 -0.4900000000000277 0  -0.5 -0.4800000000000555 0  -0.5 -0.4700000000000832 0  -0.5 -0.4600000000001109 0  -0.5 -0.4500000000001387 0  -0.5 -0.4400000000001664 0  -0.5 -0.4300000000001942 0  -0.5 -0.4200000000002219 0  -0.5 -0.4100000000002497 0  -0.5 -0.4000000000002774 0  -0.5 -0.3900000000003052 0  -0.5 -0.3800000000003328 0  -0.5 -0.3700000000003606 0  -0.5 -0.3600000000003883 0  -0.5 -0.3500000000004161 0  -0.5 -0.3400000000004438 0  -0.5 -0.3300000000004716 0  -0.5 -0.3200000000004993 0  -0.5 -0.3100000000005271 0  -0.5 -0.3000000000005548 0  -0.5 -0.2900000000005825 0  -0.5 -0.2800000000006103 0  -0.5 -0.2700000000006381 0  -0.5 -0.2600000000006658 0  -0.5 -0.2500000000006935 0  -0.5 -0.2400000000007212 0  -0.5 -0.230000000000749 0  -0.5 -0.2200000000007767 0  -0.5 -0.2100000000008044 0  -0.5 -0.2000000000008322 0  -0.5 -0.19000000000086 0  -0.5 -0.1800000000008877 0  -0.5 -0.1700000000009154 0  -0.5 -0.1600000000009431 0  -0.5 -0.1500000000009709 0  -0.5 -0.1400000000009986 0  -0.5 -0.1300000000010264 0  -0.5 -0.1200000000010541 0  -0.5 -0.1100000000010818 0  -0.5 -0.1000000000011096 0  -0.5 -0.09000000000113734 0  -0.5 -0.08000000000116503 0  -0.5 -0.07000000000119283 0  -0.5 -0.06000000000122058 0  -0.5 -0.05000000000124827 0  -0.5 -0.04000000000127607 0  -0.5 -0.03000000000130376 0  -0.5 -0.02000000000133151 0  -0.5 -0.01000000000135925 0  -0.5 -1.376121439022882e-12 0  -0.5 0.009999999998640763 0  -0.5 0.01999999999866864 0  -0.5 0.02999999999869629 0  -0.5 0.03999999999872406 0  -0.5 0.04999999999875182 0  -0.5 0.05999999999877947 0  -0.5 0.06999999999880724 0  -0.5 0.079999999998835 0  -0.5 0.08999999999886266 0  -0.5 0.09999999999889042
[...]
<PointData  Vectors="f_27-0"> 
<DataArray  type="Float64"  Name="f_27-0"  NumberOfComponents="3" format="ascii">1.1295137423237202e-03 4.6381490520778335e-02 0.0000000000000000e+00  -1.5777733693069476e-03 4.6229589982930905e-02 0.0000000000000000e+00  -1.0794397622174623e-04 3.9417432182492988e-02 0.0000000000000000e+00  2.5183883233219725e-04 3.9343761692295552e-02 0.0000000000000000e+00  -1.5176684410747317e-03 6.3040345504168510e-03 0.0000000000000000e+00  1.4771949551035091e-03 6.3107419744088313e-03 0.0000000000000000e+00  -9.6808757490194491e-04 6.2262325704994237e-03 0.0000000000000000e+00  9.7795464255295709e-04 6.2078397935858573e-03 0.0000000000000000e+00  2.2939808539848856e-03 4.5695916200079525e-02 0.0000000000000000e+00  3.4195957150292594e-03 4.4939013073946925e-02 0.0000000000000000e+00  4.5010164474305224e-03 4.4115085347103122e-02 0.0000000000000000e+00  5.5351982125242628e-03 4.3227674745301030e-02 0.0000000000000000e+00  6.5170571210697321e-03 4.2282336744028613e-02 0.0000000000000000e+00  7.4445326401256619e-03 4.1282747017872545e-02 0.0000000000000000e+00  8.3132222579074752e-03 4.0235787874103493e-02 0.0000000000000000e+00  9.1220503417845638e-03 3.9145624353596663e-02 0.0000000000000000e+00  9.8684064629188557e-03 3.8018017650084397e-02 0.0000000000000000e+00  1.0549636386277234e-02 3.6859507324056510e-02 0.0000000000000000e+00  1.1166191721620516e-02 3.5675397925155283e-02 0.0000000000000000e+00  1.1717079436661804e-02 3.4470516818818825e-02 0.0000000000000000e+00  1.2202025790883954e-02 3.3251291812829285e-02 0.0000000000000000e+00  1.2621899179276313e-02 3.2021781713668318e-02 0.0000000000000000e+00  1.2975830347721344e-02 3.0789513258554578e-02 0.0000000000000000e+00  1.3266306356866727e-02 2.9557606436108202e-02 0.0000000000000000e+00  1.3494265098925524e-02 2.8330703661609211e-02 0.0000000000000000e+00  1.3660717990970826e-02 2.7114477905862418e-02 0.0000000000000000e+00  1.3768091953396712e-02 2.5912853029307421e-02 0.0000000000000000e+00  1.3818562807948857e-02 2.4728538819963800e-02 0.0000000000000000e+00  1.3813780856907789e-02 2.3566028543916980e-02 0.0000000000000000e+00  1.3756617440960822e-02 2.2427722816327191e-02 0.0000000000000000e+00  1.3649436183788870e-02 2.1316428669862539e-02 0.0000000000000000e+00  1.3494294036352430e-02 2.0236488473674007e-02 0.0000000000000000e+00  1.3294089257788142e-02 1.9188487965641918e-02 0.0000000000000000e+00  1.3051679479446217e-02 1.8174796488173040e-02 0.0000000000000000e+00  1.2769124893252968e-02 1.7197094109889427e-02 0.0000000000000000e+00  1.2449071696439716e-02 1.6257738702450456e-02 0.0000000000000000e+00  1.2094341257825393e-02 1.5356221245827308e-02 0.0000000000000000e+00  1.1707273727028900e-02 1.4494642206337833e-02 0.0000000000000000e+00  1.1289979306856622e-02 1.3673853301995123e-02 0.0000000000000000e+00  1.0844906102268532e-02 1.2894497217469412e-02 0.0000000000000000e+00  1.0374268289667782e-02 1.2157417420289343e-02 0.0000000000000000e+00  9.8802949542219111e-03 1.1462134989633688e-02 0.0000000000000000e+00  9.3647088901356607e-03 1.0809228520486826e-02 0.0000000000000000e+00  8.8295155887065883e-03 1.0198386019068029e-02 0.0000000000000000e+00  8.2767409731314551e-03 9.6306835561239500e-03 0.0000000000000000e+00  7.7077984349311797e-03 9.1052872642088389e-03 0.0000000000000000e+00  7.1245246959084551e-03 8.6220632228215313e-03 0.0000000000000000e+00  6.5283752196755567e-03 8.1817911073245996e-03 0.0000000000000000e+00  5.9209749482908606e-03 7.7834896073444926e-03 0.0000000000000000e+00  5.3036963093261924e-03 7.4264900999098911e-03 0.0000000000000000e+00  4.6774941215394035e-03 7.1123137391232326e-03 0.0000000000000000e+00  4.0438351580681904e-03 6.8395062357085477e-03 0.0000000000000000e+00  3.4038245655654354e-03 6.6081618106776730e-03 0.0000000000000000e+00  2.7584236481561211e-03 6.4178976306415473e-03 0.0000000000000000e+00  2.1092418369600702e-03 6.2692975510076311e-03 0.0000000000000000e+00  1.4567482097909775e-03 6.1614205082222168e-03 0.0000000000000000e+00  8.0250721963161492e-04 6.0941003750463515e-03 0.0000000000000000e+00  1.4693113662136864e-04 6.0681536842725568e-03 0.0000000000000000e+00  -5.0871035717945322e-04 6.0831087953640266e-03 0.0000000000000000e+00  -1.1632533635087181e-03 6.1381781943894102e-03 0.0000000000000000e+00  -1.8160637747994379e-03 6.2339655923427913e-03 0.0000000000000000e+00  -2.4658363920249961e-03 6.3710154841412217e-03 0.0000000000000000e+00  -3.1118097731771500e-03 6.5494604482692525e-03 0.0000000000000000e+00  -3.7526365243841331e-03 6.7688525047525944e-03 0.0000000000000000e+00  -4.3874766317950308e-03 7.0296232245999155e-03 0.0000000000000000e+00  -5.0150009525135415e-03 7.3315520849612749e-03 0.0000000000000000e+00  -5.6342705668575655e-03 7.6752278022042481e-03 0.0000000000000000e+00  -6.2439270843184392e-03 8.0602133100729553e-03 0.0000000000000000e+00  -6.8424109890521034e-03 8.4878878341906328e-03 0.0000000000000000e+00  -7.4288684903031799e-03 8.9571279014961508e-03 0.0000000000000000e+00  -8.0011776048945164e-03 9.4685147517722841e-03 0.0000000000000000e+00  -8.5581543263065739e-03 1.0022176953456354e-02 0.0000000000000000e+00  -9.0981764285137656e-03 1.0617884862381285e-02 0.0000000000000000e+00  -9.6191363054961201e-03 1.1255695566518852e-02 0.0000000000000000e+00  -1.0119848571052584e-02 1.1935937441360244e-02 0.0000000000000000e+00  -1.0597376226642275e-02 1.2658373154692541e-02 0.0000000000000000e+00  -1.1050906397063780e-02 1.3422256957747803e-02 0.0000000000000000e+00  -1.1477142007317337e-02 1.4227449577405517e-02 0.0000000000000000e+00  -1.1874596977294634e-02 1.5073957531374031e-02 0.0000000000000000e+00  -1.2240985955195294e-02 1.5959268532632364e-02 0.0000000000000000e+00  -1.2573651200323870e-02 1.6883170787421246e-02 0.0000000000000000e+00  -1.2870535033437663e-02 1.7845705200263864e-02 0.0000000000000000e+00  -1.3128491790795237e-02 1.8844583601067211e-02 0.0000000000000000e+00  -1.3346044346722321e-02 1.9878281886290330e-02 0.0000000000000000e+00  -1.3519247821922405e-02 2.0945763976513185e-02 0.0000000000000000e+00  -1.3646787122255664e-02 2.2042844902987233e-02 0.0000000000000000e+00  -1.3725615667053430e-02 2.3169186640497230e-02 0.0000000000000000e+00  -1.3753133397404388e-02 2.4321401107797177e-02 0.0000000000000000e+00  -1.3727272699170701e-02 2.5496433471070126e-02 0.0000000000000000e+00  -1.3645411293333206e-02 2.6690736154142410e-02 0.0000000000000000e+00  -1.3505911875356491e-02 2.7901075392870567e-02 0.0000000000000000e+00  -1.3305818217490533e-02 2.9124226214431153e-02 0.0000000000000000e+00  -1.3044683967528623e-02 3.0353844771953322e-02 0.0000000000000000e+00  -1.2720380061664305e-02 3.1586989699775150e-02 0.0000000000000000e+00  -1.2331324848333793e-02 3.2819167001230484e-02 0.0000000000000000e+00  -1.1877039666676217e-02 3.4044310362944051e-02 0.0000000000000000e+00  -1.1357102965535899e-02 3.5257280611243412e-02 0.0000000000000000e+00  -1.0771394862701237e-02 3.6452535453542732e-02 0.0000000000000000e+00  -1.0120227950921922e-02 3.7624840747241629e-02 0.0000000000000000e+00  -9.4033246072638878e-03 3.8769363294173492e-02 0.0000000000000000e+00  -8.6231078882274999e-03 3.9879076992229860e-02 0.0000000000000000e+00  -7.7809228870493914e-03 4.0948747582549815e-02 0.0000000000000000e+00  -6.8782090795221325e-03 4.1973619784705547e-02 0.0000000000000000e+00  -5.9193101048363702e-03 4.2946217748780435e-02 0.0000000000000000e+00  -4.9053266157897827e-03 4.3863468484125735e-02 0.0000000000000000e+00  -3.8409335227373147e-03 4.4719272004525287e-02 0.0000000000000000e+00  -2.7304162355367722e-03 4.5509261651829357e-02 0.0000000000000000e+00  -1.8501187076558126e-03 4.7431228367477478e-02 0.0000000000000000e+00  -2.1420314316019356e-03 4.8692442790523066e-02 0.0000000000000000e+00  -2.4531982023721717e-03 5.0019471217229064e-02 0.0000000000000000e+00  -2.7859951574868381e-03 5.1414081347253657e-02 0.0000000000000000e+00  -3.1408312138268214e-03 5.2882831496747641e-02 0.0000000000000000e+00  -3.5213690920838335e-03 5.4428762931677734e-02 0.0000000000000000e+00  -3.9240475974865749e-03 5.6057630672171344e-02 0.0000000000000000e+00  -4.3568311697665474e-03 5.7775994383478135e-02 0.0000000000000000e+00  -4.8202460301383166e-03 5.9588248775471232e-02 0.0000000000000000e+00  -5.3126941813005698e-03 6.1502761416893745e-02 0.0000000000000000e+00  -5.8390666312639712e-03 6.3526077521230143e-02 0.0000000000000000e+00  -6.4036744791431668e-03 6.5664519072976976e-02 0.0000000000000000e+00  -7.0088984480210772e-03 6.7928452836310396e-02 0.0000000000000000e+00  -7.6604661907140863e-03 7.0322004906192198e-02 0.0000000000000000e+00  -8.3583620491339619e-03 7.2858092753694911e-02 0.0000000000000000e+00  -9.1100162832147523e-03 7.5544559768526753e-02 0.0000000000000000e+00  -9.9235998902228277e-03 7.8386259409124040e-02 0.0000000000000000e+00  -1.0798419712528420e-02 8.1398040500458763e-02 0.0000000000000000e+00  -1.1742557832456244e-02 8.4583159333452521e-02 0.0000000000000000e+00  -1.2764455263814813e-02 8.7944515321051228e-02 0.0000000000000000e+00  -1.3860614792386991e-02 9.1490593766228270e-02 0.0000000000000000e+00  -1.5033993329685415e-02 9.5214808685554375e-02 0.0000000000000000e+00  -1.6271261239840674e-02 9.9110730609824324e-02 0.0000000000000000e+00  -1.7549839130307738e-02 1.0316369785255738e-01 0.0000000000000000e+00  -1.8819239133402554e-02 1.0734942625900090e-01 0.0000000000000000e+00  -2.0012059693694979e-02 1.1161474842816468e-01 0.0000000000000000e+00  -2.0994896509865978e-02 1.1590605861831332e-01 0.0000000000000000e+00  -2.1603034729804547e-02 1.2013535755344319e-01 0.0000000000000000e+00  -2.1544797984300295e-02 1.2418219462374019e-01 0.0000000000000000e+00  -2.0492881736983045e-02 1.2791015381123480e-01 0.0000000000000000e+00  -1.7984544295032972e-02 1.3113805195741807e-01 0.0000000000000000e+00  -1.3489878356306448e-02 1.3367038087596911e-01 0.0000000000000000e+00  -6.4755284788646488e-03 1.3525533541455534e-01 0.0000000000000000e+00  3.4939863772911845e-03 1.3573725677388274e-01 0.0000000000000000e+00  1.6468457104054729e-02 1.3488492406774782e-01 0.0000000000000000e+00  3.1858492658770853e-02 1.3265499073287731e-01 0.0000000000000000e+00  4.8168671710931046e-02 1.2888588979347773e-01 0.0000000000000000e+00  6.2873735704261427e-02 1.2366149662051791e-01 0.0000000000000000e+00  7.2662829589045214e-02 1.1664442526184855e-01 0.0000000000000000e+00  7.3707864038044690e-02 1.0817183590492327e-01 0.0000000000000000e+00  6.2143578573609033e-02 9.8475517356782921e-02 0.0000000000000000e+00  3.6046718918517684e-02 8.8941091819249016e-02 0.0000000000000000e+00  -2.3035489673268374e-03 8.3511896058691165e-02 0.0000000000000000e+00  -4.2153618702784924e-02 8.5520951801267495e-02 0.0000000000000000e+00  -6.8874205710340433e-02 9.7472631925271752e-02 0.0000000000000000e+00  -7.4101092121785714e-02 1.1666440761932577e-01 0.0000000000000000e+00  -6.3818119828597822e-02 1.3577418466490779e-01 0.0000000000000000e+00  -5.0112375039022633e-02 1.5067358456242141e-01 0.0000000000000000e+00  -3.8119034102367930e-02 1.6039044257660376e-01 0.0000000000000000e+00  -2.8354347724659810e-02 1.6623978377624829e-01 0.0000000000000000e+00  -2.0341420665480350e-02 1.6933373560136106e-01 0.0000000000000000e+00  -1.3658001841221979e-02 1.7038704390568349e-01 0.0000000000000000e+00  -8.0613101485933758e-03 1.6989111579045182e-01 0.0000000000000000e+00  -3.3506225221011593e-03 1.6818045379776184e-01 0.0000000000000000e+00  5.5006536745350293e-04 1.6551578170502745e-01 0.0000000000000000e+00  3.7641313179752871e-03 1.6210711103775977e-01 0.0000000000000000e+00  6.3546746444079075e-03 1.5814465734335209e-01 0.0000000000000000e+00  8.3942846783322065e-03 1.5377562871614270e-01 0.0000000000000000e+00  9.9530727002766634e-03 1.4912421122917516e-01 0.0000000000000000e+00  1.1093993752329525e-02 1.4429616058221809e-01 0.0000000000000000e+00  1.1883929348068277e-02 1.3937170362737739e-01 0.0000000000000000e+00  1.2374682588049444e-02 1.3442756285753452e-01 0.0000000000000000e+00  1.2619364642934280e-02 1.2952084978195094e-01 0.0000000000000000e+00  1.2661737714366270e-02 1.2469364886282353e-01 0.0000000000000000e+00  1.2543631093144009e-02 1.1998168752602778e-01 0.0000000000000000e+00  1.2302259121877398e-02 1.1540659882062775e-01 0.0000000000000000e+00  1.1966596099794195e-02 1.1099361603056988e-01 0.0000000000000000e+00  1.1565062378615694e-02 1.0674069800855465e-01 0.0000000000000000e+00  1.1112466987545170e-02 1.0267091294194627e-01 0.0000000000000000e+00  1.0628599364881718e-02 9.8773227025991506e-02 0.0000000000000000e+00  1.0122255331951440e-02 9.5054933506193776e-02 0.0000000000000000e+00  9.6014407593693046e-03 9.1513339265675966e-02 0.0000000000000000e+00  9.0765901073525494e-03 8.8145895923568446e-02 0.0000000000000000e+00  8.5566135229447476e-03 8.4941657968039430e-02 0.0000000000000000e+00  8.0442331233318218e-03 8.1894399434247742e-02 0.0000000000000000e+00  7.5393136714127992e-03 7.9004351629764852e-02 0.0000000000000000e+00  7.0498758201159965e-03 7.6255226657443304e-02 0.0000000000000000e+00  6.5689943887155718e-03 7.3646705000555576e-02 0.0000000000000000e+00  6.1050373307590692e-03 7.1167330089372149e-02 0.0000000000000000e+00  5.6570945436762990e-03 6.8812797274203974e-02 0.0000000000000000e+00  5.2242801628765078e-03 6.6575589937931764e-02 0.0000000000000000e+00  4.8075808304894833e-03 6.4448012598485357e-02 0.0000000000000000e+00  4.4073058981339303e-03 6.2426256609989496e-02 0.0000000000000000e+00  4.0238490040760818e-03 6.0501149612878287e-02 0.0000000000000000e+00  3.6549076441850141e-03 5.8670543051254062e-02 0.0000000000000000e+00  3.3027548192655276e-03 5.6926080743206410e-02 0.0000000000000000e+00  2.9674112873227187e-03 5.5265015545723738e-02 0.0000000000000000e+00  2.6466035000108300e-03 5.3681258175440595e-02 0.0000000000000000e+00  2.3408648615551777e-03 5.2171771144293416e-02 0.0000000000000000e+00  2.0492241158997044e-03 5.0731121353738098e-02 0.0000000000000000e+00  1.7730175822295786e-03 4.9356697380387060e-02 0.0000000000000000e+00  1.5119470636316956e-03 4.8043649493417544e-02 0.0000000000000000e+00  1.2644380125996547e-03 4.6790037041580572e-02 0.0000000000000000e+00  1.0298725984184774e-03 4.5591822831858884e-02 0.0000000000000000e+00  8.0928229928849105e-04 4.4445849323576855e-02 0.0000000000000000e+00  6.0064159910793694e-04 4.3350271029124136e-02 0.0000000000000000e+00  4.0509993554818630e-04 4.2301357971930319e-02 0.0000000000000000e+00  2.2280626834968832e-04 4.1297534337987329e-02 0.0000000000000000e+00  5.1989506712383085e-05 4.0336906030653909e-02 0.0000000000000000e+00  7.7884906481671718e-04 3.8886281476533550e-02 0.0000000000000000e+00  1.6373758910089551e-03 3.8305072453313556e-02 0.0000000000000000e+00  2.4656859067215776e-03 3.7675502412523071e-02 0.0000000000000000e+00  3.2603261242207904e-03 3.7000872089686873e-02 0.0000000000000000e+00  4.0195841993124265e-03 3.6283612070749399e-02 0.0000000000000000e+00  4.7404252867830282e-03 3.5527846386973476e-02 0.0000000000000000e+00  5.4216775365997227e-03 3.4735744444418681e-02 0.0000000000000000e+00  6.0607378659792597e-03 3.3911457545782266e-02 0.0000000000000000e+00  6.6563403401274767e-03 3.3058213392271947e-02 0.0000000000000000e+00  7.2079279354078513e-03 3.2179094326266519e-02 0.0000000000000000e+00  7.7137891758288883e-03 3.1278043916945830e-02 0.0000000000000000e+00  8.1732526312430671e-03 3.0359487930350162e-02 0.0000000000000000e+00  8.5859195202331699e-03 2.9426308285688634e-02 0.0000000000000000e+00  8.9510884618730028e-03 2.8482905693986420e-02 0.0000000000000000e+00  9.2698587900209971e-03 2.7531418599338969e-02 0.0000000000000000e+00  9.5415961130664150e-03 2.6576504238613692e-02 0.0000000000000000e+00  9.7669423649160477e-03 2.5621706046772663e-02 0.0000000000000000e+00  9.9467656041772132e-03 2.4669758448645617e-02 0.0000000000000000e+00  1.0081803014886839e-02 2.3723552160801811e-02 0.0000000000000000e+00  1.0172757260325913e-02 2.2786989120593529e-02 0.0000000000000000e+00  1.0221118191063323e-02 2.1862225450990626e-02 0.0000000000000000e+00  1.0227901543888269e-02 2.0952425663290631e-02 0.0000000000000000e+00  1.0194398528002810e-02 2.0060118910257267e-02 0.0000000000000000e+00  1.0122631270131660e-02 1.9186644548631528e-02 0.0000000000000000e+00  1.0013677931083709e-02 1.8334914571037180e-02 0.0000000000000000e+00  9.8691508973128231e-03 1.7506725220387223e-02 0.0000000000000000e+00  9.6908900529375230e-03 1.6703952835270808e-02 0.0000000000000000e+00  9.4806793051955794e-03 1.5927520798040991e-02 0.0000000000000000e+00  9.2400120060122781e-03 1.5180077700656951e-02 0.0000000000000000e+00  8.9704459946589512e-03 1.4462176780994472e-02 0.0000000000000000e+00  8.6740415596775929e-03 1.3775006838481036e-02 0.0000000000000000e+00  8.3522806602208538e-03 1.3119503235251967e-02 0.0000000000000000e+00  8.0070019341834803e-03 1.2496302847233014e-02 0.0000000000000000e+00  7.6396146811837824e-03 1.1906701194177740e-02 0.0000000000000000e+00  7.2519457144609757e-03 1.1351011001907954e-02 0.0000000000000000e+00  6.8455381083872783e-03 1.0830208732697608e-02 0.0000000000000000e+00  6.4216693122624950e-03 1.0343897232127364e-02 0.0000000000000000e+00  5.9821177354912689e-03 9.8931336381953613e-03 0.0000000000000000e+00  5.5280567389200865e-03 9.4779219529857670e-03 0.0000000000000000e+00  5.0612773453318867e-03 9.0981631099750059e-03 0.0000000000000000e+00  4.5828821111513528e-03 8.7548450169655252e-03 0.0000000000000000e+00  4.0940911806806295e-03 8.4484642926985071e-03 0.0000000000000000e+00  3.5963836272920879e-03 8.1777553035524125e-03 0.0000000000000000e+00  3.0907342466942010e-03 7.9435399733567991e-03 0.0000000000000000e+00  2.5784470263034323e-03 7.7456880729161355e-03 0.0000000000000000e+00  2.0608301294666280e-03 7.5843487261900416e-03 0.0000000000000000e+00  1.5387810101783435e-03 7.4590540724000136e-03 0.0000000000000000e+00  1.0139271838217005e-03 7.3706930009065381e-03 0.0000000000000000e+00  4.8683622781469662e-04 7.3192607140455694e-03 0.0000000000000000e+00  -4.1022218269686181e-05 7.3039656777011425e-03 0.0000000000000000e+00  -5.6877172999820601e-04 7.3250446836083741e-03 0.0000000000000000e+00  -1.0953361110330750e-03 7.3830089534501877e-03 0.0000000000000000e+00  -1.6193073851425224e-03 7.4776617049293528e-03 0.0000000000000000e+00  -2.1397876195129385e-03 7.6086662121543826e-03 0.0000000000000000e+00  -2.6555705595978198e-03 7.7759130111319501e-03 0.0000000000000000e+00  -3.1657677476557935e-03 7.9795529712158898e-03 0.0000000000000000e+00  -3.6688509572281704e-03 8.2193566312040757e-03 0.0000000000000000e+00  -4.1638646696292676e-03 8.4957864507389947e-03 0.0000000000000000e+00  -4.6494060600876935e-03 8.8083096251599952e-03 0.0000000000000000e+00  -5.1241774441834129e-03 9.1572391157721186e-03 0.0000000000000000e+00  -5.5871756318447282e-03 9.5414393513959112e-03 0.0000000000000000e+00  -6.0365997731173350e-03 9.9616952203886687e-03 0.0000000000000000e+00  -6.4715573790674165e-03 1.0417299757274807e-02 0.0000000000000000e+00  -6.8903174365800178e-03 1.0907965073690936e-02 0.0000000000000000e+00  -7.2913557354772774e-03 1.1433392233938982e-02 0.0000000000000000e+00  -7.6733025522650426e-03 1.1993156901300261e-02 0.0000000000000000e+00  -8.0343375376539065e-03 1.2586446169309312e-02 0.0000000000000000e+00  -8.3734343405261983e-03 1.3212338625518317e-02 0.0000000000000000e+00  -8.6881764030454379e-03 1.3870709301676288e-02 0.0000000000000000e+00  -8.9777519185555814e-03 1.4560193918396538e-02 0.0000000000000000e+00  -9.2399427951762904e-03 1.5279663428942594e-02 0.0000000000000000e+00  -9.4730363427368569e-03 1.6028972586945925e-02 0.0000000000000000e+00  -9.6755304777797878e-03 1.6806498541109136e-02 0.0000000000000000e+00  -9.8458352865439351e-03 1.7609743500637726e-02 0.0000000000000000e+00  -9.9824711676871191e-03 1.8437897818602764e-02 0.0000000000000000e+00  -1.0083027191400277e-02 1.9288921108616804e-02 0.0000000000000000e+00  -1.0147076299106824e-02